 vasp.5.4.4.18Apr17-6-g9f103f2a35 (build Oct 16 2019 11:16:52) complex          
  
 executed on             LinuxIFC date 2021.08.15  18:34:56
 running on   20 total cores
 distrk:  each k-point on   20 cores,    1 groups
 distr:  one band on NCORES_PER_BAND=   5 cores,    4 groups


--------------------------------------------------------------------------------------------------------


 INCAR:
 POTCAR:    PAW_PBE Cl 06Sep2000                  
 POTCAR:    PAW_PBE C 08Apr2002                   
 POTCAR:    PAW_PBE Cl 06Sep2000                  
   VRHFIN =Cl: s2p5                                                             
   LEXCH  = PE                                                                  
   EATOM  =   409.7259 eV,   30.1140 Ry                                         
                                                                                
   TITEL  = PAW_PBE Cl 06Sep2000                                                
   LULTRA =        F    use ultrasoft PP ?                                      
   IUNSCR =        1    unscreen: 0-lin 1-nonlin 2-no                           
   RPACOR =    1.500    partial core radius                                     
   POMASS =   35.453; ZVAL   =    7.000    mass and valenz                      
   RCORE  =    1.900    outmost cutoff radius                                   
   RWIGS  =    2.100; RWIGS  =    1.111    wigner-seitz radius (au A)           
   ENMAX  =  262.472; ENMIN  =  196.854 eV                                      
   ICORE  =        2    local potential                                         
   LCOR   =        T    correct aug charges                                     
   LPAW   =        T    paw PP                                                  
   EAUG   =  356.192                                                            
   DEXC   =    0.000                                                            
   RMAX   =    1.945    core radius for proj-oper                               
   RAUG   =    1.300    factor for augmentation sphere                          
   RDEP   =    2.020    radius for radial grids                                 
   RDEPT  =    1.678    core radius for aug-charge                              
                                                                                
   Atomic configuration                                                         
    6 entries                                                                   
     n  l   j            E        occ.                                          
     1  0  0.50     -2751.1850   2.0000                                         
     2  0  0.50      -252.6861   2.0000                                         
     2  1  1.50      -191.6157   6.0000                                         
     3  0  0.50       -20.6916   2.0000                                         
     3  1  0.50        -8.5949   5.0000                                         
     3  2  1.50        -8.1635   0.0000                                         
   Description                                                                  
     l       E           TYP  RCUT    TYP  RCUT                                 
     0    -20.6915656     23  1.900                                             
     0    -22.0521482     23  1.900                                             
     1     -8.5948577     23  1.900                                             
     1     -5.3847331     23  1.900                                             
     2     -8.1634956     23  1.900                                             
  local pseudopotential read in
  partial core-charges read in
  partial kinetic energy density read in
  atomic valenz-charges read in
  non local Contribution for L=           0  read in
    real space projection operators read in
  non local Contribution for L=           0  read in
    real space projection operators read in
  non local Contribution for L=           1  read in
    real space projection operators read in
  non local Contribution for L=           1  read in
    real space projection operators read in
    PAW grid and wavefunctions read in
 
   number of l-projection  operators is LMAX  =           4
   number of lm-projection operators is LMMAX =           8
 
 POTCAR:    PAW_PBE C 08Apr2002                   
   VRHFIN =C: s2p2                                                              
   LEXCH  = PE                                                                  
   EATOM  =   147.1560 eV,   10.8157 Ry                                         
                                                                                
   TITEL  = PAW_PBE C 08Apr2002                                                 
   LULTRA =        F    use ultrasoft PP ?                                      
   IUNSCR =        1    unscreen: 0-lin 1-nonlin 2-no                           
   RPACOR =    1.200    partial core radius                                     
   POMASS =   12.011; ZVAL   =    4.000    mass and valenz                      
   RCORE  =    1.500    outmost cutoff radius                                   
   RWIGS  =    1.630; RWIGS  =    0.863    wigner-seitz radius (au A)           
   ENMAX  =  400.000; ENMIN  =  300.000 eV                                      
   ICORE  =        2    local potential                                         
   LCOR   =        T    correct aug charges                                     
   LPAW   =        T    paw PP                                                  
   EAUG   =  644.873                                                            
   DEXC   =    0.000                                                            
   RMAX   =    1.529    core radius for proj-oper                               
   RAUG   =    1.300    factor for augmentation sphere                          
   RDEP   =    1.501    radius for radial grids                                 
   RDEPT  =    1.300    core radius for aug-charge                              
                                                                                
   Atomic configuration                                                         
    4 entries                                                                   
     n  l   j            E        occ.                                          
     1  0  0.50      -273.3789   2.0000                                         
     2  0  0.50       -13.7508   2.0000                                         
     2  1  0.50        -5.2854   2.0000                                         
     3  2  1.50        -5.4423   0.0000                                         
   Description                                                                  
     l       E           TYP  RCUT    TYP  RCUT                                 
     0    -13.7508458     23  1.200                                             
     0     -8.2022199     23  1.200                                             
     1     -5.2854383     23  1.500                                             
     1     34.0145650     23  1.500                                             
     2     -5.4423304      7  1.500                                             
  local pseudopotential read in
  partial core-charges read in
  partial kinetic energy density read in
  atomic valenz-charges read in
  non local Contribution for L=           0  read in
    real space projection operators read in
  non local Contribution for L=           0  read in
    real space projection operators read in
  non local Contribution for L=           1  read in
    real space projection operators read in
  non local Contribution for L=           1  read in
    real space projection operators read in
    PAW grid and wavefunctions read in
 
   number of l-projection  operators is LMAX  =           4
   number of lm-projection operators is LMMAX =           8
 

 ----------------------------------------------------------------------------- 
|                                                                             |
|  ADVICE TO THIS USER RUNNING 'VASP/VAMP'   (HEAR YOUR MASTER'S VOICE ...):  |
|                                                                             |
|      You have a (more or less) 'small supercell' and for smaller cells      |
|      it is recommended  to use the reciprocal-space projection scheme!      |
|      The real space optimization is not  efficient for small cells and it   |
|      is also less accurate ...                                              |
|      Therefore set LREAL=.FALSE. in the  INCAR file                         |
|                                                                             |
 ----------------------------------------------------------------------------- 

 Optimization of the real space projectors (new method)

 maximal supplied QI-value         = 19.84
 optimisation between [QCUT,QGAM] = [ 11.31, 22.82] = [ 35.82,145.81] Ry 
 Optimized for a Real-space Cutoff    1.16 Angstroem

   l    n(q)    QCUT    max X(q) W(low)/X(q) W(high)/X(q)  e(spline) 
   0      8    11.310   168.010    0.31E-03    0.34E-03    0.40E-07
   0      8    11.310   164.674    0.31E-03    0.33E-03    0.39E-07
   1      7    11.310    69.222    0.33E-03    0.38E-03    0.90E-07
   1      7    11.310    56.786    0.32E-03    0.37E-03    0.88E-07
 Optimization of the real space projectors (new method)

 maximal supplied QI-value         = 25.13
 optimisation between [QCUT,QGAM] = [ 11.31, 22.87] = [ 35.82,146.48] Ry 
 Optimized for a Real-space Cutoff    1.00 Angstroem

   l    n(q)    QCUT    max X(q) W(low)/X(q) W(high)/X(q)  e(spline) 
   0      7    11.310   115.676    0.43E-03    0.13E-02    0.19E-06
   0      7    11.310    87.132    0.43E-03    0.13E-02    0.18E-06
   1      6    11.310     4.429    0.42E-03    0.74E-03    0.11E-06
   1      6    11.310     2.733    0.34E-03    0.55E-03    0.92E-07
  PAW_PBE Cl 06Sep2000                  :
 energy of atom  1       EATOM= -409.7259
 kinetic energy error for atom=    0.0030 (will be added to EATOM!!)
  PAW_PBE C 08Apr2002                   :
 energy of atom  2       EATOM= -147.1560
 kinetic energy error for atom=    0.0076 (will be added to EATOM!!)
 
 
 POSCAR: PCE                                     
  positions in direct lattice
  No initial velocities read in
 exchange correlation table for  LEXCH =        8
   RHO(1)=    0.500       N(1)  =     2000
   RHO(2)=  100.500       N(2)  =     4000

 VTST: version 3.2, (02/03/18)

 CHAIN: initializing optimizer
 
 OPT: Using VASP Conjugate-Gradient optimizer
 CHAIN: Read ICHAIN            0
 
 POSCAR: PCE                                     
  positions in direct lattice
  No initial velocities read in
 


--------------------------------------------------------------------------------------------------------


 ion  position               nearest neighbor table
   1  0.681  0.641  0.514-   6 1.73
   2  0.361  0.641  0.514-   5 1.73
   3  0.361  0.348  0.514-   5 1.73
   4  0.681  0.348  0.514-   6 1.73
   5  0.454  0.495  0.514-   6 1.34   3 1.73   2 1.73
   6  0.588  0.495  0.514-   5 1.34   1 1.73   4 1.73
 
  LATTYP: Found a simple cubic cell.
 ALAT       =    10.0000000000
  
  Lattice vectors:
  
 A1 = (  10.0000000000,   0.0000000000,   0.0000000000)
 A2 = (   0.0000000000,  10.0000000000,   0.0000000000)
 A3 = (   0.0000000000,   0.0000000000,  10.0000000000)


Analysis of symmetry for initial positions (statically):
=====================================================================
 Subroutine PRICEL returns:
 Original cell was already a primitive cell.
 

 Routine SETGRP: Setting up the symmetry group for a 
 simple cubic supercell.


 Subroutine GETGRP returns: Found  1 space group operations
 (whereof  1 operations were pure point group operations)
 out of a pool of 48 trial point group operations.


The static configuration has the point symmetry C_1 .


Analysis of symmetry for dynamics (positions and initial velocities):
=====================================================================
 Subroutine PRICEL returns:
 Original cell was already a primitive cell.
 

 Routine SETGRP: Setting up the symmetry group for a 
 simple cubic supercell.


 Subroutine GETGRP returns: Found  1 space group operations
 (whereof  1 operations were pure point group operations)
 out of a pool of 48 trial point group operations.


The dynamic configuration has the point symmetry C_1 .


 Subroutine INISYM returns: Found  1 space group operations
 (whereof  1 operations are pure point group operations),
 and found     1 'primitive' translations

 
 
 KPOINTS: Auto-generation                         

Automatic generation of k-mesh.
Space group operators:
 irot       det(A)        alpha          n_x          n_y          n_z        tau_x        tau_y        tau_z
    1     1.000000     0.000000     1.000000     0.000000     0.000000     0.000000     0.000000     0.000000
 
 Subroutine IBZKPT returns following result:
 ===========================================
 
 Found      1 irreducible k-points:
 
 Following reciprocal coordinates:
            Coordinates               Weight
  0.000000  0.000000  0.000000      1.000000
 
 Following cartesian coordinates:
            Coordinates               Weight
  0.000000  0.000000  0.000000      1.000000
 


--------------------------------------------------------------------------------------------------------




 Dimension of arrays:
   k-points           NKPTS =      1   k-points in BZ     NKDIM =      1   number of bands    NBANDS=     24
   number of dos      NEDOS =    301   number of ions     NIONS =      6
   non local maximal  LDIM  =      4   non local SUM 2l+1 LMDIM =      8
   total plane-waves  NPLWV = 175616
   max r-space proj   IRMAX =   1209   max aug-charges    IRDMAX=   5247
   dimension x,y,z NGX =    56 NGY =   56 NGZ =   56
   dimension x,y,z NGXF=   112 NGYF=  112 NGZF=  112
   support grid    NGXF=   112 NGYF=  112 NGZF=  112
   ions per type =               4   2
   NGX,Y,Z   is equivalent  to a cutoff of   9.31,  9.31,  9.31 a.u.
   NGXF,Y,Z  is equivalent  to a cutoff of  18.62, 18.62, 18.62 a.u.

 SYSTEM =  unknown system                          
 POSCAR =  PCE                                     

 Startparameter for this run:
   NWRITE =      2    write-flag & timer
   PREC   = n         normal or accurate (medium, high low for compatibility)
   ISTART =      0    job   : 0-new  1-cont  2-samecut
   ICHARG =      2    charge: 1-file 2-atom 10-const
   ISPIN  =      1    spin polarized calculation?
   LNONCOLLINEAR =      F non collinear calculations
   LSORBIT =      F    spin-orbit coupling
   INIWAV =      1    electr: 0-lowe 1-rand  2-diag
   LASPH  =      F    aspherical Exc in radial PAW
   METAGGA=      F    non-selfconsistent MetaGGA calc.

 Electronic Relaxation 1
   ENCUT  =  500.0 eV  36.75 Ry    6.06 a.u.  18.23 18.23 18.23*2*pi/ulx,y,z
   ENINI  =  500.0     initial cutoff
   ENAUG  =  644.9 eV  augmentation charge cutoff
   NELM   =    200;   NELMIN=  2; NELMDL= -5     # of ELM steps 
   EDIFF  = 0.1E-03   stopping-criterion for ELM
   LREAL  =      T    real-space projection
   NLSPLINE    = F    spline interpolate recip. space projectors
   LCOMPAT=      F    compatible to vasp.4.4
   GGA_COMPAT  = T    GGA compatible to vasp.4.4-vasp.4.6
   LMAXPAW     = -100 max onsite density
   LMAXMIX     =    2 max onsite mixed and CHGCAR
   VOSKOWN=      0    Vosko Wilk Nusair interpolation
   ROPT   =   -0.00050  -0.00050
 Ionic relaxation
   EDIFFG = -.2E-01   stopping-criterion for IOM
   NSW    =    500    number of steps for IOM
   NBLOCK =      1;   KBLOCK =    500    inner block; outer block 
   IBRION =      2    ionic relax: 0-MD 1-quasi-New 2-CG
   NFREE  =      1    steps in history (QN), initial steepest desc. (CG)
   ISIF   =      2    stress and relaxation
   IWAVPR =     11    prediction:  0-non 1-charg 2-wave 3-comb
   ISYM   =      2    0-nonsym 1-usesym 2-fastsym
   LCORR  =      T    Harris-Foulkes like correction to forces

   POTIM  = 0.5000    time-step for ionic-motion
   TEIN   =    0.0    initial temperature
   TEBEG  =    0.0;   TEEND  =   0.0 temperature during run
   SMASS  =  -3.00    Nose mass-parameter (am)
   estimated Nose-frequenzy (Omega)   =  0.10E-29 period in steps =****** mass=  -0.229E-26a.u.
   SCALEE = 1.0000    scale energy and forces
   NPACO  =    256;   APACO  = 16.0  distance and # of slots for P.C.
   PSTRESS=    0.0 pullay stress

  Mass of Ions in am
   POMASS =  35.45 12.01
  Ionic Valenz
   ZVAL   =   7.00  4.00
  Atomic Wigner-Seitz radii
   RWIGS  =  -1.00 -1.00
  virtual crystal weights 
   VCA    =   1.00  1.00
   NELECT =      36.0000    total number of electrons
   NUPDOWN=      -1.0000    fix difference up-down

 DOS related values:
   EMIN   =  10.00;   EMAX   =-10.00  energy-range for DOS
   EFERMI =   0.00
   ISMEAR =     0;   SIGMA  =   0.05  broadening in eV -4-tet -1-fermi 0-gaus

 Electronic relaxation 2 (details)
   IALGO  =     68    algorithm
   LDIAG  =      T    sub-space diagonalisation (order eigenvalues)
   LSUBROT=      F    optimize rotation matrix (better conditioning)
   TURBO    =      0    0=normal 1=particle mesh
   IRESTART =      0    0=no restart 2=restart with 2 vectors
   NREBOOT  =      0    no. of reboots
   NMIN     =      0    reboot dimension
   EREF     =   0.00    reference energy to select bands
   IMIX   =      4    mixing-type and parameters
     AMIX     =   0.40;   BMIX     =  1.00
     AMIX_MAG =   1.60;   BMIX_MAG =  1.00
     AMIN     =   0.10
     WC   =   100.;   INIMIX=   1;  MIXPRE=   1;  MAXMIX= -45

 Intra band minimization:
   WEIMIN = 0.0010     energy-eigenvalue tresh-hold
   EBREAK =  0.10E-05  absolut break condition
   DEPER  =   0.30     relativ break condition  

   TIME   =   0.40     timestep for ELM

  volume/ion in A,a.u.               =     166.67      1124.72
  Fermi-wavevector in a.u.,A,eV,Ry     =   0.540558  1.021507  3.975663  0.292203
  Thomas-Fermi vector in A             =   1.567744
 
 Write flags
   LWAVE        =      F    write WAVECAR
   LDOWNSAMPLE  =      F    k-point downsampling of WAVECAR
   LCHARG       =      F    write CHGCAR
   LVTOT        =      F    write LOCPOT, total local potential
   LVHAR        =      F    write LOCPOT, Hartree potential only
   LELF         =      F    write electronic localiz. function (ELF)
   LORBIT       =      0    0 simple, 1 ext, 2 COOP (PROOUT), +10 PAW based schemes


 Dipole corrections
   LMONO  =      F    monopole corrections only (constant potential shift)
   LDIPOL =      F    correct potential (dipole corrections)
   IDIPOL =      0    1-x, 2-y, 3-z, 4-all directions 
   EPSILON=  1.0000000 bulk dielectric constant

 Exchange correlation treatment:
   GGA     =    --    GGA type
   LEXCH   =     8    internal setting for exchange type
   VOSKOWN=      0    Vosko Wilk Nusair interpolation
   LHFCALC =     F    Hartree Fock is set to
   LHFONE  =     F    Hartree Fock one center treatment
   AEXX    =    0.0000 exact exchange contribution

 Linear response parameters
   LEPSILON=     F    determine dielectric tensor
   LRPA    =     F    only Hartree local field effects (RPA)
   LNABLA  =     F    use nabla operator in PAW spheres
   LVEL    =     F    velocity operator in full k-point grid
   LINTERFAST=   F  fast interpolation
   KINTER  =     0    interpolate to denser k-point grid
   CSHIFT  =0.1000    complex shift for real part using Kramers Kronig
   OMEGAMAX=  -1.0    maximum frequency
   DEG_THRESHOLD= 0.2000000E-02 threshold for treating states as degnerate
   RTIME   =   -0.100 relaxation time in fs
  (WPLASMAI=    0.000 imaginary part of plasma frequency in eV, 0.658/RTIME)
   DFIELD  = 0.0000000 0.0000000 0.0000000 field for delta impulse in time
 
 Orbital magnetization related:
   ORBITALMAG=     F  switch on orbital magnetization
   LCHIMAG   =     F  perturbation theory with respect to B field
   DQ        =  0.001000  dq finite difference perturbation B field
   LLRAUG    =     F  two centre corrections for induced B field



--------------------------------------------------------------------------------------------------------


 conjugate gradient relaxation of ions
 charge density and potential will be updated during run
 non-spin polarized calculation
 RMM-DIIS sequential band-by-band and
  variant of blocked Davidson during initial phase
 perform sub-space diagonalisation
    before iterative eigenvector-optimisation
 modified Broyden-mixing scheme, WC =      100.0
 initial mixing is a Kerker type mixing with AMIX =  0.4000 and BMIX =      1.0000
 Hartree-type preconditioning will be used
 using additional bands            6
 real space projection scheme for non local part
 use partial core corrections
 calculate Harris-corrections to forces 
   (improved forces if not selfconsistent)
 use gradient corrections 
 use of overlap-Matrix (Vanderbilt PP)
 Gauss-broadening in eV      SIGMA  =   0.05


--------------------------------------------------------------------------------------------------------


  energy-cutoff  :      500.00
  volume of cell :     1000.00
      direct lattice vectors                 reciprocal lattice vectors
    10.000000000  0.000000000  0.000000000     0.100000000  0.000000000  0.000000000
     0.000000000 10.000000000  0.000000000     0.000000000  0.100000000  0.000000000
     0.000000000  0.000000000 10.000000000     0.000000000  0.000000000  0.100000000

  length of vectors
    10.000000000 10.000000000 10.000000000     0.100000000  0.100000000  0.100000000


 
 k-points in units of 2pi/SCALE and weight: Auto-generation                         
   0.00000000  0.00000000  0.00000000       1.000
 
 k-points in reciprocal lattice and weights: Auto-generation                         
   0.00000000  0.00000000  0.00000000       1.000
 
 position of ions in fractional coordinates (direct lattice) 
   0.68115997  0.64103001  0.51380998
   0.36100999  0.64091998  0.51402003
   0.36129999  0.34827000  0.51380003
   0.68123001  0.34847000  0.51402003
   0.45429000  0.49465004  0.51398999
   0.58802003  0.49476999  0.51393998
 
 position of ions in cartesian coordinates  (Angst):
   6.81159973  6.41030014  5.13809979
   3.61009985  6.40919983  5.14020026
   3.61299992  3.48269999  5.13800025
   6.81230009  3.48470002  5.14020026
   4.54290003  4.94650036  5.13989985
   5.88020027  4.94769990  5.13939977
 


--------------------------------------------------------------------------------------------------------


 k-point  1 :   0.0000 0.0000 0.0000  plane waves:   25413

 maximum and minimum number of plane-waves per node :      5089     5078

 maximum number of plane-waves:     25413
 maximum index in each direction: 
   IXMAX=   18   IYMAX=   18   IZMAX=   18
   IXMIN=  -18   IYMIN=  -18   IZMIN=  -18


 real space projection operators:
  total allocation   :        372.31 KBytes
  max/ min on nodes  :         75.12         73.75


 parallel 3D FFT for wavefunctions:
    minimum data exchange during FFTs selected (reduces bandwidth)
 parallel 3D FFT for charge:
    minimum data exchange during FFTs selected (reduces bandwidth)


 total amount of memory used by VASP MPI-rank0    40167. kBytes
=======================================================================

   base      :      30000. kBytes
   nonlr-proj:        210. kBytes
   fftplans  :       3677. kBytes
   grid      :       5784. kBytes
   one-center:          6. kBytes
   wavefun   :        490. kBytes
 
     INWAV:  cpu time    0.0000: real time    0.0000
 Broyden mixing: mesh for mixing (old mesh)
   NGX = 37   NGY = 37   NGZ = 37
  (NGX  =112   NGY  =112   NGZ  =112)
  gives a total of  50653 points

 initial charge density was supplied:
 charge density of overlapping atoms calculated
 number of electron      36.0000000 magnetization 
 keeping initial charge density in first step


--------------------------------------------------------------------------------------------------------


 Maximum index for non-local projection operator          235
 Maximum index for augmentation-charges          349 (set IRDMAX)


--------------------------------------------------------------------------------------------------------


 First call to EWALD:  gamma=   0.177
 Maximum number of real-space cells 3x 3x 3
 Maximum number of reciprocal cells 3x 3x 3

    FEWALD:  cpu time    0.0020: real time    0.0016


--------------------------------------- Iteration      1(   1)  ---------------------------------------


    POTLOK:  cpu time    0.0550: real time    0.0562
    SETDIJ:  cpu time    0.0030: real time    0.0025
     EDDAV:  cpu time    0.0840: real time    0.0847
       DOS:  cpu time    0.0010: real time    0.0002
    --------------------------------------------
      LOOP:  cpu time    0.1430: real time    0.1435

 eigenvalue-minimisations  :    64
 total energy-change (2. order) : 0.2704597E+03  (-0.1077954E+04)
 number of electron      36.0000000 magnetization 
 augmentation part       36.0000000 magnetization 

 Free energy of the ion-electron system (eV)
  ---------------------------------------------------
  alpha Z        PSCENC =         5.82332350
  Ewald energy   TEWEN  =       451.10820911
  -Hartree energ DENC   =     -2051.91930559
  -exchange      EXHF   =         0.00000000
  -V(xc)+E(xc)   XCENC  =       105.92299134
  PAW double counting   =      1518.14632203    -1519.74007168
  entropy T*S    EENTRO =        -0.02391211
  eigenvalues    EBANDS =      -172.04623627
  atomic energy  EATOM  =      1933.18838430
  Solvation  Ediel_sol  =         0.00000000
  ---------------------------------------------------
  free energy    TOTEN  =       270.45970462 eV

  energy without entropy =      270.48361673  energy(sigma->0) =      270.47166067


--------------------------------------------------------------------------------------------------------




--------------------------------------- Iteration      1(   2)  ---------------------------------------


     EDDAV:  cpu time    0.0830: real time    0.0835
       DOS:  cpu time    0.0000: real time    0.0001
    --------------------------------------------
      LOOP:  cpu time    0.0830: real time    0.0836

 eigenvalue-minimisations  :    72
 total energy-change (2. order) :-0.2169466E+03  (-0.2071020E+03)
 number of electron      36.0000000 magnetization 
 augmentation part       36.0000000 magnetization 

 Free energy of the ion-electron system (eV)
  ---------------------------------------------------
  alpha Z        PSCENC =         5.82332350
  Ewald energy   TEWEN  =       451.10820911
  -Hartree energ DENC   =     -2051.91930559
  -exchange      EXHF   =         0.00000000
  -V(xc)+E(xc)   XCENC  =       105.92299134
  PAW double counting   =      1518.14632203    -1519.74007168
  entropy T*S    EENTRO =        -0.00000000
  eigenvalues    EBANDS =      -389.01671966
  atomic energy  EATOM  =      1933.18838430
  Solvation  Ediel_sol  =         0.00000000
  ---------------------------------------------------
  free energy    TOTEN  =        53.51313334 eV

  energy without entropy =       53.51313334  energy(sigma->0) =       53.51313334


--------------------------------------------------------------------------------------------------------




--------------------------------------- Iteration      1(   3)  ---------------------------------------


     EDDAV:  cpu time    0.0570: real time    0.0574
       DOS:  cpu time    0.0000: real time    0.0001
    --------------------------------------------
      LOOP:  cpu time    0.0570: real time    0.0575

 eigenvalue-minimisations  :    48
 total energy-change (2. order) :-0.7680486E+02  (-0.7667065E+02)
 number of electron      36.0000000 magnetization 
 augmentation part       36.0000000 magnetization 

 Free energy of the ion-electron system (eV)
  ---------------------------------------------------
  alpha Z        PSCENC =         5.82332350
  Ewald energy   TEWEN  =       451.10820911
  -Hartree energ DENC   =     -2051.91930559
  -exchange      EXHF   =         0.00000000
  -V(xc)+E(xc)   XCENC  =       105.92299134
  PAW double counting   =      1518.14632203    -1519.74007168
  entropy T*S    EENTRO =        -0.00000000
  eigenvalues    EBANDS =      -465.82157836
  atomic energy  EATOM  =      1933.18838430
  Solvation  Ediel_sol  =         0.00000000
  ---------------------------------------------------
  free energy    TOTEN  =       -23.29172537 eV

  energy without entropy =      -23.29172537  energy(sigma->0) =      -23.29172537


--------------------------------------------------------------------------------------------------------




--------------------------------------- Iteration      1(   4)  ---------------------------------------


     EDDAV:  cpu time    0.0670: real time    0.0673
       DOS:  cpu time    0.0000: real time    0.0001
    --------------------------------------------
      LOOP:  cpu time    0.0670: real time    0.0674

 eigenvalue-minimisations  :    64
 total energy-change (2. order) :-0.3771829E+01  (-0.3745752E+01)
 number of electron      36.0000000 magnetization 
 augmentation part       36.0000000 magnetization 

 Free energy of the ion-electron system (eV)
  ---------------------------------------------------
  alpha Z        PSCENC =         5.82332350
  Ewald energy   TEWEN  =       451.10820911
  -Hartree energ DENC   =     -2051.91930559
  -exchange      EXHF   =         0.00000000
  -V(xc)+E(xc)   XCENC  =       105.92299134
  PAW double counting   =      1518.14632203    -1519.74007168
  entropy T*S    EENTRO =        -0.00000000
  eigenvalues    EBANDS =      -469.59340741
  atomic energy  EATOM  =      1933.18838430
  Solvation  Ediel_sol  =         0.00000000
  ---------------------------------------------------
  free energy    TOTEN  =       -27.06355441 eV

  energy without entropy =      -27.06355441  energy(sigma->0) =      -27.06355441


--------------------------------------------------------------------------------------------------------




--------------------------------------- Iteration      1(   5)  ---------------------------------------


     EDDAV:  cpu time    0.0670: real time    0.0667
       DOS:  cpu time    0.0000: real time    0.0001
    CHARGE:  cpu time    0.0070: real time    0.0073
    MIXING:  cpu time    0.0020: real time    0.0016
    --------------------------------------------
      LOOP:  cpu time    0.0760: real time    0.0758

 eigenvalue-minimisations  :    64
 total energy-change (2. order) :-0.6758851E-01  (-0.6726060E-01)
 number of electron      35.9999991 magnetization 
 augmentation part       -3.6297602 magnetization 

 Broyden mixing:
  rms(total) = 0.21257E+01    rms(broyden)= 0.21256E+01
  rms(prec ) = 0.22035E+01
  weight for this iteration     100.00

 Free energy of the ion-electron system (eV)
  ---------------------------------------------------
  alpha Z        PSCENC =         5.82332350
  Ewald energy   TEWEN  =       451.10820911
  -Hartree energ DENC   =     -2051.91930559
  -exchange      EXHF   =         0.00000000
  -V(xc)+E(xc)   XCENC  =       105.92299134
  PAW double counting   =      1518.14632203    -1519.74007168
  entropy T*S    EENTRO =        -0.00000000
  eigenvalues    EBANDS =      -469.66099592
  atomic energy  EATOM  =      1933.18838430
  Solvation  Ediel_sol  =         0.00000000
  ---------------------------------------------------
  free energy    TOTEN  =       -27.13114292 eV

  energy without entropy =      -27.13114292  energy(sigma->0) =      -27.13114292


--------------------------------------------------------------------------------------------------------




--------------------------------------- Iteration      1(   6)  ---------------------------------------


    POTLOK:  cpu time    0.0460: real time    0.0459
    SETDIJ:  cpu time    0.0020: real time    0.0019
    EDDIAG:  cpu time    0.0100: real time    0.0103
  RMM-DIIS:  cpu time    0.0410: real time    0.0414
    ORTHCH:  cpu time    0.0030: real time    0.0029
       DOS:  cpu time    0.0000: real time    0.0001
    CHARGE:  cpu time    0.0070: real time    0.0067
    MIXING:  cpu time    0.0020: real time    0.0015
    --------------------------------------------
      LOOP:  cpu time    0.1110: real time    0.1108

 eigenvalue-minimisations  :    48
 total energy-change (2. order) : 0.1055014E+01  (-0.2180186E+00)
 number of electron      35.9999990 magnetization 
 augmentation part       -3.6620177 magnetization 

 Broyden mixing:
  rms(total) = 0.10820E+01    rms(broyden)= 0.10820E+01
  rms(prec ) = 0.11044E+01
  weight for this iteration     100.00

 eigenvalues of (default mixing * dielectric matrix)
  average eigenvalue GAMMA=   1.9585
  1.9585

 Free energy of the ion-electron system (eV)
  ---------------------------------------------------
  alpha Z        PSCENC =         5.82332350
  Ewald energy   TEWEN  =       451.10820911
  -Hartree energ DENC   =     -2066.94241276
  -exchange      EXHF   =         0.00000000
  -V(xc)+E(xc)   XCENC  =       106.53726245
  PAW double counting   =      2082.24452308    -2084.11489485
  entropy T*S    EENTRO =        -0.00000000
  eigenvalues    EBANDS =      -453.92052363
  atomic energy  EATOM  =      1933.18838430
  Solvation  Ediel_sol  =         0.00000000
  ---------------------------------------------------
  free energy    TOTEN  =       -26.07612880 eV

  energy without entropy =      -26.07612880  energy(sigma->0) =      -26.07612880


--------------------------------------------------------------------------------------------------------




--------------------------------------- Iteration      1(   7)  ---------------------------------------


    POTLOK:  cpu time    0.0460: real time    0.0461
    SETDIJ:  cpu time    0.0010: real time    0.0013
    EDDIAG:  cpu time    0.0100: real time    0.0099
  RMM-DIIS:  cpu time    0.0420: real time    0.0418
    ORTHCH:  cpu time    0.0020: real time    0.0026
       DOS:  cpu time    0.0000: real time    0.0001
    CHARGE:  cpu time    0.0070: real time    0.0068
    MIXING:  cpu time    0.0020: real time    0.0015
    --------------------------------------------
      LOOP:  cpu time    0.1100: real time    0.1100

 eigenvalue-minimisations  :    48
 total energy-change (2. order) : 0.1749015E+00  (-0.6493197E-01)
 number of electron      35.9999990 magnetization 
 augmentation part       -3.6480650 magnetization 

 Broyden mixing:
  rms(total) = 0.29290E+00    rms(broyden)= 0.29290E+00
  rms(prec ) = 0.29816E+00
  weight for this iteration     100.00

 eigenvalues of (default mixing * dielectric matrix)
  average eigenvalue GAMMA=   1.7758
  1.0420  2.5097

 Free energy of the ion-electron system (eV)
  ---------------------------------------------------
  alpha Z        PSCENC =         5.82332350
  Ewald energy   TEWEN  =       451.10820911
  -Hartree energ DENC   =     -2078.38033453
  -exchange      EXHF   =         0.00000000
  -V(xc)+E(xc)   XCENC  =       107.34346734
  PAW double counting   =      2802.27123605    -2804.52365916
  entropy T*S    EENTRO =        -0.00000000
  eigenvalues    EBANDS =      -442.73185388
  atomic energy  EATOM  =      1933.18838430
  Solvation  Ediel_sol  =         0.00000000
  ---------------------------------------------------
  free energy    TOTEN  =       -25.90122728 eV

  energy without entropy =      -25.90122728  energy(sigma->0) =      -25.90122728


--------------------------------------------------------------------------------------------------------




--------------------------------------- Iteration      1(   8)  ---------------------------------------


    POTLOK:  cpu time    0.0460: real time    0.0471
    SETDIJ:  cpu time    0.0010: real time    0.0013
    EDDIAG:  cpu time    0.0100: real time    0.0099
  RMM-DIIS:  cpu time    0.0410: real time    0.0415
    ORTHCH:  cpu time    0.0030: real time    0.0026
       DOS:  cpu time    0.0000: real time    0.0001
    CHARGE:  cpu time    0.0070: real time    0.0066
    MIXING:  cpu time    0.0020: real time    0.0019
    --------------------------------------------
      LOOP:  cpu time    0.1100: real time    0.1111

 eigenvalue-minimisations  :    49
 total energy-change (2. order) :-0.7747468E-03  (-0.6128130E-02)
 number of electron      35.9999990 magnetization 
 augmentation part       -3.6415254 magnetization 

 Broyden mixing:
  rms(total) = 0.54840E-01    rms(broyden)= 0.54839E-01
  rms(prec ) = 0.64046E-01
  weight for this iteration     100.00

 eigenvalues of (default mixing * dielectric matrix)
  average eigenvalue GAMMA=   1.8031
  1.0822  2.5165  1.8106

 Free energy of the ion-electron system (eV)
  ---------------------------------------------------
  alpha Z        PSCENC =         5.82332350
  Ewald energy   TEWEN  =       451.10820911
  -Hartree energ DENC   =     -2080.84919351
  -exchange      EXHF   =         0.00000000
  -V(xc)+E(xc)   XCENC  =       107.57981582
  PAW double counting   =      3108.69726373    -3111.03669393
  entropy T*S    EENTRO =        -0.00000000
  eigenvalues    EBANDS =      -440.41311103
  atomic energy  EATOM  =      1933.18838430
  Solvation  Ediel_sol  =         0.00000000
  ---------------------------------------------------
  free energy    TOTEN  =       -25.90200203 eV

  energy without entropy =      -25.90200203  energy(sigma->0) =      -25.90200203


--------------------------------------------------------------------------------------------------------




--------------------------------------- Iteration      1(   9)  ---------------------------------------


    POTLOK:  cpu time    0.0450: real time    0.0457
    SETDIJ:  cpu time    0.0020: real time    0.0013
    EDDIAG:  cpu time    0.0090: real time    0.0098
  RMM-DIIS:  cpu time    0.0420: real time    0.0415
    ORTHCH:  cpu time    0.0030: real time    0.0026
       DOS:  cpu time    0.0000: real time    0.0001
    CHARGE:  cpu time    0.0060: real time    0.0067
    MIXING:  cpu time    0.0020: real time    0.0016
    --------------------------------------------
      LOOP:  cpu time    0.1090: real time    0.1093

 eigenvalue-minimisations  :    48
 total energy-change (2. order) : 0.2981380E-02  (-0.1107501E-02)
 number of electron      35.9999990 magnetization 
 augmentation part       -3.6450888 magnetization 

 Broyden mixing:
  rms(total) = 0.10050E-01    rms(broyden)= 0.10050E-01
  rms(prec ) = 0.15225E-01
  weight for this iteration     100.00

 eigenvalues of (default mixing * dielectric matrix)
  average eigenvalue GAMMA=   1.8268
  2.4436  1.0718  1.8959  1.8959

 Free energy of the ion-electron system (eV)
  ---------------------------------------------------
  alpha Z        PSCENC =         5.82332350
  Ewald energy   TEWEN  =       451.10820911
  -Hartree energ DENC   =     -2079.84509324
  -exchange      EXHF   =         0.00000000
  -V(xc)+E(xc)   XCENC  =       107.50742177
  PAW double counting   =      3129.11958579    -3131.39940006
  entropy T*S    EENTRO =        -0.00000000
  eigenvalues    EBANDS =      -441.40145180
  atomic energy  EATOM  =      1933.18838430
  Solvation  Ediel_sol  =         0.00000000
  ---------------------------------------------------
  free energy    TOTEN  =       -25.89902065 eV

  energy without entropy =      -25.89902065  energy(sigma->0) =      -25.89902065


--------------------------------------------------------------------------------------------------------




--------------------------------------- Iteration      1(  10)  ---------------------------------------


    POTLOK:  cpu time    0.0460: real time    0.0456
    SETDIJ:  cpu time    0.0010: real time    0.0013
    EDDIAG:  cpu time    0.0100: real time    0.0098
  RMM-DIIS:  cpu time    0.0300: real time    0.0304
    ORTHCH:  cpu time    0.0030: real time    0.0026
       DOS:  cpu time    0.0000: real time    0.0001
    CHARGE:  cpu time    0.0070: real time    0.0067
    MIXING:  cpu time    0.0010: real time    0.0018
    --------------------------------------------
      LOOP:  cpu time    0.0980: real time    0.0983

 eigenvalue-minimisations  :    34
 total energy-change (2. order) :-0.1226735E-02  (-0.3117235E-04)
 number of electron      35.9999990 magnetization 
 augmentation part       -3.6451905 magnetization 

 Broyden mixing:
  rms(total) = 0.41791E-02    rms(broyden)= 0.41790E-02
  rms(prec ) = 0.94669E-02
  weight for this iteration     100.00

 eigenvalues of (default mixing * dielectric matrix)
  average eigenvalue GAMMA=   1.8289
  0.9860  1.0720  2.5453  2.5453  1.9959

 Free energy of the ion-electron system (eV)
  ---------------------------------------------------
  alpha Z        PSCENC =         5.82332350
  Ewald energy   TEWEN  =       451.10820911
  -Hartree energ DENC   =     -2080.19521852
  -exchange      EXHF   =         0.00000000
  -V(xc)+E(xc)   XCENC  =       107.51138910
  PAW double counting   =      3120.68263091    -3122.95960733
  entropy T*S    EENTRO =        -0.00000000
  eigenvalues    EBANDS =      -441.05935844
  atomic energy  EATOM  =      1933.18838430
  Solvation  Ediel_sol  =         0.00000000
  ---------------------------------------------------
  free energy    TOTEN  =       -25.90024738 eV

  energy without entropy =      -25.90024738  energy(sigma->0) =      -25.90024738


--------------------------------------------------------------------------------------------------------




--------------------------------------- Iteration      1(  11)  ---------------------------------------


    POTLOK:  cpu time    0.0460: real time    0.0456
    SETDIJ:  cpu time    0.0010: real time    0.0013
    EDDIAG:  cpu time    0.0100: real time    0.0098
  RMM-DIIS:  cpu time    0.0310: real time    0.0308
    ORTHCH:  cpu time    0.0020: real time    0.0026
       DOS:  cpu time    0.0000: real time    0.0001
    CHARGE:  cpu time    0.0070: real time    0.0069
    MIXING:  cpu time    0.0020: real time    0.0018
    --------------------------------------------
      LOOP:  cpu time    0.0990: real time    0.0989

 eigenvalue-minimisations  :    31
 total energy-change (2. order) :-0.1575944E-02  (-0.2172196E-04)
 number of electron      35.9999990 magnetization 
 augmentation part       -3.6452189 magnetization 

 Broyden mixing:
  rms(total) = 0.22935E-02    rms(broyden)= 0.22934E-02
  rms(prec ) = 0.53862E-02
  weight for this iteration     100.00

 eigenvalues of (default mixing * dielectric matrix)
  average eigenvalue GAMMA=   1.8211
  2.5430  2.5430  0.9701  1.0695  1.9005  1.9005

 Free energy of the ion-electron system (eV)
  ---------------------------------------------------
  alpha Z        PSCENC =         5.82332350
  Ewald energy   TEWEN  =       451.10820911
  -Hartree energ DENC   =     -2080.71900598
  -exchange      EXHF   =         0.00000000
  -V(xc)+E(xc)   XCENC  =       107.51990693
  PAW double counting   =      3117.03095147    -3119.30432788
  entropy T*S    EENTRO =        -0.00000000
  eigenvalues    EBANDS =      -440.54926477
  atomic energy  EATOM  =      1933.18838430
  Solvation  Ediel_sol  =         0.00000000
  ---------------------------------------------------
  free energy    TOTEN  =       -25.90182332 eV

  energy without entropy =      -25.90182332  energy(sigma->0) =      -25.90182332


--------------------------------------------------------------------------------------------------------




--------------------------------------- Iteration      1(  12)  ---------------------------------------


    POTLOK:  cpu time    0.0450: real time    0.0450
    SETDIJ:  cpu time    0.0010: real time    0.0013
    EDDIAG:  cpu time    0.0100: real time    0.0097
  RMM-DIIS:  cpu time    0.0310: real time    0.0304
    ORTHCH:  cpu time    0.0020: real time    0.0026
       DOS:  cpu time    0.0000: real time    0.0001
    CHARGE:  cpu time    0.0070: real time    0.0069
    MIXING:  cpu time    0.0020: real time    0.0019
    --------------------------------------------
      LOOP:  cpu time    0.0980: real time    0.0979

 eigenvalue-minimisations  :    32
 total energy-change (2. order) :-0.1350646E-02  (-0.2182973E-04)
 number of electron      35.9999990 magnetization 
 augmentation part       -3.6450854 magnetization 

 Broyden mixing:
  rms(total) = 0.16669E-02    rms(broyden)= 0.16669E-02
  rms(prec ) = 0.27129E-02
  weight for this iteration     100.00

 eigenvalues of (default mixing * dielectric matrix)
  average eigenvalue GAMMA=   2.0334
  4.1452  2.6688  2.1909  2.1909  1.0441  0.9969  0.9969

 Free energy of the ion-electron system (eV)
  ---------------------------------------------------
  alpha Z        PSCENC =         5.82332350
  Ewald energy   TEWEN  =       451.10820911
  -Hartree energ DENC   =     -2081.19843214
  -exchange      EXHF   =         0.00000000
  -V(xc)+E(xc)   XCENC  =       107.53015124
  PAW double counting   =      3118.43533243    -3120.70862042
  entropy T*S    EENTRO =        -0.00000000
  eigenvalues    EBANDS =      -440.08152198
  atomic energy  EATOM  =      1933.18838430
  Solvation  Ediel_sol  =         0.00000000
  ---------------------------------------------------
  free energy    TOTEN  =       -25.90317397 eV

  energy without entropy =      -25.90317397  energy(sigma->0) =      -25.90317397


--------------------------------------------------------------------------------------------------------




--------------------------------------- Iteration      1(  13)  ---------------------------------------


    POTLOK:  cpu time    0.0450: real time    0.0447
    SETDIJ:  cpu time    0.0010: real time    0.0013
    EDDIAG:  cpu time    0.0100: real time    0.0098
  RMM-DIIS:  cpu time    0.0280: real time    0.0282
    ORTHCH:  cpu time    0.0030: real time    0.0027
       DOS:  cpu time    0.0000: real time    0.0002
    CHARGE:  cpu time    0.0070: real time    0.0068
    MIXING:  cpu time    0.0020: real time    0.0020
    --------------------------------------------
      LOOP:  cpu time    0.0960: real time    0.0957

 eigenvalue-minimisations  :    30
 total energy-change (2. order) :-0.4545416E-03  (-0.8721837E-05)
 number of electron      35.9999990 magnetization 
 augmentation part       -3.6449781 magnetization 

 Broyden mixing:
  rms(total) = 0.57910E-03    rms(broyden)= 0.57908E-03
  rms(prec ) = 0.12896E-02
  weight for this iteration     100.00

 eigenvalues of (default mixing * dielectric matrix)
  average eigenvalue GAMMA=   2.2257
  5.7272  2.7001  2.2777  2.2777  1.7263  1.0385  1.0385  1.0198

 Free energy of the ion-electron system (eV)
  ---------------------------------------------------
  alpha Z        PSCENC =         5.82332350
  Ewald energy   TEWEN  =       451.10820911
  -Hartree energ DENC   =     -2081.41064692
  -exchange      EXHF   =         0.00000000
  -V(xc)+E(xc)   XCENC  =       107.53406777
  PAW double counting   =      3117.07827012    -3119.35173521
  entropy T*S    EENTRO =        -0.00000000
  eigenvalues    EBANDS =      -439.87350117
  atomic energy  EATOM  =      1933.18838430
  Solvation  Ediel_sol  =         0.00000000
  ---------------------------------------------------
  free energy    TOTEN  =       -25.90362851 eV

  energy without entropy =      -25.90362851  energy(sigma->0) =      -25.90362851


--------------------------------------------------------------------------------------------------------




--------------------------------------- Iteration      1(  14)  ---------------------------------------


    POTLOK:  cpu time    0.0440: real time    0.0445
    SETDIJ:  cpu time    0.0020: real time    0.0013
    EDDIAG:  cpu time    0.0090: real time    0.0096
  RMM-DIIS:  cpu time    0.0270: real time    0.0268
    ORTHCH:  cpu time    0.0020: real time    0.0025
       DOS:  cpu time    0.0010: real time    0.0001
    CHARGE:  cpu time    0.0060: real time    0.0066
    MIXING:  cpu time    0.0020: real time    0.0021
    --------------------------------------------
      LOOP:  cpu time    0.0930: real time    0.0935

 eigenvalue-minimisations  :    26
 total energy-change (2. order) :-0.2992872E-03  (-0.3926981E-05)
 number of electron      35.9999990 magnetization 
 augmentation part       -3.6449828 magnetization 

 Broyden mixing:
  rms(total) = 0.30309E-03    rms(broyden)= 0.30308E-03
  rms(prec ) = 0.67025E-03
  weight for this iteration     100.00

 eigenvalues of (default mixing * dielectric matrix)
  average eigenvalue GAMMA=   2.2393
  6.5048  2.8075  2.3555  2.0782  2.0782  1.2122  0.9963  1.0604  1.0604

 Free energy of the ion-electron system (eV)
  ---------------------------------------------------
  alpha Z        PSCENC =         5.82332350
  Ewald energy   TEWEN  =       451.10820911
  -Hartree energ DENC   =     -2081.42879872
  -exchange      EXHF   =         0.00000000
  -V(xc)+E(xc)   XCENC  =       107.53300316
  PAW double counting   =      3117.11721024    -3119.39035124
  entropy T*S    EENTRO =        -0.00000000
  eigenvalues    EBANDS =      -439.85490813
  atomic energy  EATOM  =      1933.18838430
  Solvation  Ediel_sol  =         0.00000000
  ---------------------------------------------------
  free energy    TOTEN  =       -25.90392780 eV

  energy without entropy =      -25.90392780  energy(sigma->0) =      -25.90392780


--------------------------------------------------------------------------------------------------------




--------------------------------------- Iteration      1(  15)  ---------------------------------------


    POTLOK:  cpu time    0.0430: real time    0.0432
    SETDIJ:  cpu time    0.0020: real time    0.0013
    EDDIAG:  cpu time    0.0090: real time    0.0092
  RMM-DIIS:  cpu time    0.0230: real time    0.0233
    ORTHCH:  cpu time    0.0030: real time    0.0024
       DOS:  cpu time    0.0000: real time    0.0001
    CHARGE:  cpu time    0.0060: real time    0.0066
    MIXING:  cpu time    0.0030: real time    0.0022
    --------------------------------------------
      LOOP:  cpu time    0.0890: real time    0.0883

 eigenvalue-minimisations  :    19
 total energy-change (2. order) :-0.1310703E-03  (-0.1539922E-05)
 number of electron      35.9999990 magnetization 
 augmentation part       -3.6449867 magnetization 

 Broyden mixing:
  rms(total) = 0.16615E-03    rms(broyden)= 0.16614E-03
  rms(prec ) = 0.39577E-03
  weight for this iteration     100.00

 eigenvalues of (default mixing * dielectric matrix)
  average eigenvalue GAMMA=   2.4000
  7.2294  3.6029  2.5149  2.5149  2.1541  1.8649  1.0590  1.0590  1.0006  1.0006

 Free energy of the ion-electron system (eV)
  ---------------------------------------------------
  alpha Z        PSCENC =         5.82332350
  Ewald energy   TEWEN  =       451.10820911
  -Hartree energ DENC   =     -2081.44083323
  -exchange      EXHF   =         0.00000000
  -V(xc)+E(xc)   XCENC  =       107.53291437
  PAW double counting   =      3117.15031757    -3119.42368594
  entropy T*S    EENTRO =        -0.00000000
  eigenvalues    EBANDS =      -439.84268853
  atomic energy  EATOM  =      1933.18838430
  Solvation  Ediel_sol  =         0.00000000
  ---------------------------------------------------
  free energy    TOTEN  =       -25.90405887 eV

  energy without entropy =      -25.90405887  energy(sigma->0) =      -25.90405887


--------------------------------------------------------------------------------------------------------




--------------------------------------- Iteration      1(  16)  ---------------------------------------


    POTLOK:  cpu time    0.0430: real time    0.0436
    SETDIJ:  cpu time    0.0010: real time    0.0013
    EDDIAG:  cpu time    0.0100: real time    0.0092
  RMM-DIIS:  cpu time    0.0250: real time    0.0253
    ORTHCH:  cpu time    0.0020: real time    0.0025
       DOS:  cpu time    0.0010: real time    0.0001
    CHARGE:  cpu time    0.0060: real time    0.0067
    MIXING:  cpu time    0.0030: real time    0.0023
    --------------------------------------------
      LOOP:  cpu time    0.0910: real time    0.0910

 eigenvalue-minimisations  :    22
 total energy-change (2. order) :-0.1031289E-03  (-0.1438115E-05)
 number of electron      35.9999990 magnetization 
 augmentation part       -3.6449847 magnetization 

 Broyden mixing:
  rms(total) = 0.13840E-03    rms(broyden)= 0.13839E-03
  rms(prec ) = 0.17040E-03
  weight for this iteration     100.00

 eigenvalues of (default mixing * dielectric matrix)
  average eigenvalue GAMMA=   2.3922
  7.5605  4.3027  2.6062  2.4318  1.9788  1.9788  1.3940  1.0488  1.0137  1.0137
  0.9854

 Free energy of the ion-electron system (eV)
  ---------------------------------------------------
  alpha Z        PSCENC =         5.82332350
  Ewald energy   TEWEN  =       451.10820911
  -Hartree energ DENC   =     -2081.42827037
  -exchange      EXHF   =         0.00000000
  -V(xc)+E(xc)   XCENC  =       107.53198664
  PAW double counting   =      3116.99782690    -3119.27110702
  entropy T*S    EENTRO =        -0.00000000
  eigenvalues    EBANDS =      -439.85451504
  atomic energy  EATOM  =      1933.18838430
  Solvation  Ediel_sol  =         0.00000000
  ---------------------------------------------------
  free energy    TOTEN  =       -25.90416200 eV

  energy without entropy =      -25.90416200  energy(sigma->0) =      -25.90416200


--------------------------------------------------------------------------------------------------------




--------------------------------------- Iteration      1(  17)  ---------------------------------------


    POTLOK:  cpu time    0.0430: real time    0.0436
    SETDIJ:  cpu time    0.0010: real time    0.0013
    EDDIAG:  cpu time    0.0100: real time    0.0091
  RMM-DIIS:  cpu time    0.0220: real time    0.0221
    ORTHCH:  cpu time    0.0020: real time    0.0023
       DOS:  cpu time    0.0000: real time    0.0001
    --------------------------------------------
      LOOP:  cpu time    0.0780: real time    0.0785

 eigenvalue-minimisations  :    14
 total energy-change (2. order) :-0.1022948E-04  (-0.2573591E-06)
 number of electron      35.9999990 magnetization 
 augmentation part       -3.6449847 magnetization 

 Free energy of the ion-electron system (eV)
  ---------------------------------------------------
  alpha Z        PSCENC =         5.82332350
  Ewald energy   TEWEN  =       451.10820911
  -Hartree energ DENC   =     -2081.42146009
  -exchange      EXHF   =         0.00000000
  -V(xc)+E(xc)   XCENC  =       107.53172869
  PAW double counting   =      3117.15356333    -3119.42672676
  entropy T*S    EENTRO =        -0.00000000
  eigenvalues    EBANDS =      -439.86119431
  atomic energy  EATOM  =      1933.18838430
  Solvation  Ediel_sol  =         0.00000000
  ---------------------------------------------------
  free energy    TOTEN  =       -25.90417223 eV

  energy without entropy =      -25.90417223  energy(sigma->0) =      -25.90417223


--------------------------------------------------------------------------------------------------------




 average (electrostatic) potential at core
  the test charge radii are     0.9406  0.6991
  (the norm of the test charge is              1.0000)
       1-100.9054       2-100.9031       3-100.9046       4-100.9020       5 -61.1104
       6 -61.1103
 
 
 
 E-fermi :  -5.1243     XC(G=0):  -1.8274     alpha+bet : -0.9534


 k-point     1 :       0.0000    0.0000    0.0000
  band No.  band energies     occupation 
      1     -23.1586      2.00000
      2     -21.8506      2.00000
      3     -20.8696      2.00000
      4     -20.3075      2.00000
      5     -17.4892      2.00000
      6     -13.3426      2.00000
      7     -11.9338      2.00000
      8     -11.8504      2.00000
      9     -10.2070      2.00000
     10     -10.1075      2.00000
     11      -8.5159      2.00000
     12      -8.0309      2.00000
     13      -7.6998      2.00000
     14      -7.6650      2.00000
     15      -7.5160      2.00000
     16      -7.3712      2.00000
     17      -6.6236      2.00000
     18      -5.3914      2.00000
     19      -1.1198      0.00000
     20      -0.9682      0.00000
     21      -0.7988      0.00000
     22      -0.7060      0.00000
     23       0.0670      0.00000
     24       1.3737      0.00000


--------------------------------------------------------------------------------------------------------


 soft charge-density along one line, spin component           1
         0         1         2         3         4         5         6         7         8         9
 total charge-density along one line
 
 pseudopotential strength for first ion, spin component:           1
 50.454  52.950  -0.050   0.000  -0.034  -0.062   0.000  -0.042
 52.950  55.573  -0.053   0.000  -0.035  -0.066   0.000  -0.044
 -0.050  -0.053   9.445  -0.000   0.010  11.702  -0.000   0.011
  0.000   0.000  -0.000   9.429  -0.000  -0.000  11.684  -0.000
 -0.034  -0.035   0.010  -0.000   9.436   0.011  -0.000  11.692
 -0.062  -0.066  11.702  -0.000   0.011  14.515  -0.000   0.013
  0.000   0.000  -0.000  11.684  -0.000  -0.000  14.494  -0.000
 -0.042  -0.044   0.011  -0.000  11.692   0.013  -0.000  14.503
 total augmentation occupancy for first ion, spin component:           1
  9.960  -8.057   6.188  -0.005   3.897  -3.076   0.002  -1.876
 -8.057   8.082  -5.898   0.005  -3.719   3.066  -0.002   1.879
  6.188  -5.898   5.575  -0.003   1.918  -2.411   0.002  -1.298
 -0.005   0.005  -0.003   2.605  -0.001   0.002  -0.404   0.001
  3.897  -3.719   1.918  -0.001   3.757  -1.298   0.001  -1.152
 -3.076   3.066  -2.411   0.002  -1.298   1.239  -0.001   0.652
  0.002  -0.002   0.002  -0.404   0.001  -0.001   0.201  -0.000
 -1.876   1.879  -1.298   0.001  -1.152   0.652  -0.000   0.562


------------------------ aborting loop because EDIFF is reached ----------------------------------------


    CHARGE:  cpu time    0.0060: real time    0.0066
    FORLOC:  cpu time    0.0040: real time    0.0038
    FORNL :  cpu time    0.0130: real time    0.0125
    STRESS:  cpu time    0.0370: real time    0.0376
    FORCOR:  cpu time    0.0460: real time    0.0468
    FORHAR:  cpu time    0.0120: real time    0.0123
    MIXING:  cpu time    0.0030: real time    0.0025
    OFIELD:  cpu time    0.0000: real time    0.0000

  FORCE on cell =-STRESS in cart. coord.  units (eV):
  Direction    XX          YY          ZZ          XY          YZ          ZX
  --------------------------------------------------------------------------------------
  Alpha Z     5.82332     5.82332     5.82332
  Ewald     716.45309   672.41049  -937.75647     0.13534     0.02217    -0.01676
  Hartree  1117.65342  1013.02146   -49.25224     0.01946     0.01349    -0.00852
  E(xc)    -132.73943  -132.23696  -134.66489     0.00010     0.00004     0.00001
  Local   -2531.37373 -2350.30925   237.96468    -0.15204    -0.03476     0.02845
  n-local   325.00676   324.43496   322.18766     0.00870     0.00719     0.00326
  augment   -79.81331   -77.12475   -81.24113    -0.00143    -0.00006     0.00091
  Kinetic   578.70312   541.23628   636.85739     0.00491    -0.00192    -0.00258
  Fock        0.00000     0.00000     0.00000     0.00000     0.00000     0.00000
  -------------------------------------------------------------------------------------
  Total      -0.28676    -2.74444    -0.08168     0.01504     0.00616     0.00477
  in kB      -0.45944    -4.39708    -0.13086     0.02410     0.00986     0.00765
  external pressure =       -1.66 kB  Pullay stress =        0.00 kB


 VOLUME and BASIS-vectors are now :
 -----------------------------------------------------------------------------
  energy-cutoff  :      500.00
  volume of cell :     1000.00
      direct lattice vectors                 reciprocal lattice vectors
    10.000000000  0.000000000  0.000000000     0.100000000  0.000000000  0.000000000
     0.000000000 10.000000000  0.000000000     0.000000000  0.100000000  0.000000000
     0.000000000  0.000000000 10.000000000     0.000000000  0.000000000  0.100000000

  length of vectors
    10.000000000 10.000000000 10.000000000     0.100000000  0.100000000  0.100000000


 FORCES acting on ions
    electron-ion (+dipol)            ewald-force                    non-local-force                 convergence-correction
 -----------------------------------------------------------------------------------------------
   -.185E+03 -.223E+03 0.224E+00   0.189E+03 0.229E+03 -.230E+00   -.425E+01 -.620E+01 0.478E-02   -.763E-05 0.375E-03 0.505E-05
   0.185E+03 -.223E+03 -.137E+00   -.189E+03 0.228E+03 0.138E+00   0.426E+01 -.621E+01 -.618E-02   0.164E-04 0.346E-03 0.903E-06
   0.185E+03 0.223E+03 0.265E+00   -.188E+03 -.229E+03 -.274E+00   0.424E+01 0.622E+01 0.198E-01   -.467E-07 -.371E-03 0.581E-05
   -.185E+03 0.223E+03 -.163E+00   0.189E+03 -.228E+03 0.166E+00   -.426E+01 0.621E+01 -.481E-04   -.950E-05 -.369E-03 0.705E-05
   0.745E+02 -.576E-01 -.187E+00   -.714E+02 0.696E-01 0.198E+00   -.441E+01 0.198E-02 -.141E-01   -.373E-03 -.432E-05 0.478E-05
   -.744E+02 -.971E-01 -.736E-02   0.713E+02 0.879E-01 0.183E-02   0.445E+01 -.140E-01 0.695E-02   0.388E-03 -.127E-05 0.358E-05
 -----------------------------------------------------------------------------------------------
   0.248E-02 -.357E-02 -.520E-02   -.426E-13 -.139E-16 -.423E-16   0.340E-01 -.190E-02 0.113E-01   0.149E-04 -.253E-04 0.272E-04
 
 
 POSITION                                       TOTAL-FORCE (eV/Angst)
 -----------------------------------------------------------------------------------
      6.81160      6.41030      5.13810        -0.313123     -0.452105     -0.002183
      3.61010      6.40920      5.14020         0.310050     -0.467232     -0.005954
      3.61300      3.48270      5.13800         0.291459      0.461018      0.009665
      6.81230      3.48470      5.14020        -0.320309      0.465774      0.002298
      4.54290      4.94650      5.13990        -1.287114      0.014930     -0.004231
      5.88020      4.94770      5.13940         1.319037     -0.022385      0.000406
 -----------------------------------------------------------------------------------
    total drift:                                0.036514     -0.005499      0.006080


--------------------------------------------------------------------------------------------------------



  FREE ENERGIE OF THE ION-ELECTRON SYSTEM (eV)
  ---------------------------------------------------
  free  energy   TOTEN  =       -25.90417223 eV

  energy  without entropy=      -25.90417223  energy(sigma->0) =      -25.90417223
 


--------------------------------------------------------------------------------------------------------


    POTLOK:  cpu time    0.0440: real time    0.0442


--------------------------------------------------------------------------------------------------------


 stress matrix after NEB project (eV)
     -0.28676      0.01504      0.00477
      0.01504     -2.74444      0.00616
      0.00477      0.00616     -0.08168
  FORCES: max atom, RMS     1.319227    0.878570
  FORCE total and by dimension    2.152048    1.319037
  Stress total and by dimension    2.760692    2.744438


--------------------------------------------------------------------------------------------------------


    WAVPRE:  cpu time    0.0140: real time    0.0146
    FEWALD:  cpu time    0.0000: real time    0.0002

 real space projection operators:
  total allocation   :        372.56 KBytes
  max/ min on nodes  :         75.31         73.38

    ORTHCH:  cpu time    0.0050: real time    0.0051
     LOOP+:  cpu time    1.7947: real time    1.8014


--------------------------------------- Iteration      2(   1)  ---------------------------------------


    POTLOK:  cpu time    0.0430: real time    0.0440
    SETDIJ:  cpu time    0.0010: real time    0.0013
     EDDAV:  cpu time    0.0520: real time    0.0518
       DOS:  cpu time    0.0000: real time    0.0001
    CHARGE:  cpu time    0.0060: real time    0.0059
    MIXING:  cpu time    0.0020: real time    0.0016
    --------------------------------------------
      LOOP:  cpu time    0.1040: real time    0.1048

 eigenvalue-minimisations  :    48
 total energy-change (2. order) : 0.2745777E+00  (-0.2983908E+01)
 number of electron      36.0000001 magnetization 
 augmentation part       -3.6387102 magnetization 

 Broyden mixing:
  rms(total) = 0.50024E+00    rms(broyden)= 0.50022E+00
  rms(prec ) = 0.50708E+00
  weight for this iteration     100.00

 Free energy of the ion-electron system (eV)
  ---------------------------------------------------
  alpha Z        PSCENC =         5.82332350
  Ewald energy   TEWEN  =       476.05181175
  -Hartree energ DENC   =     -2103.97399841
  -exchange      EXHF   =         0.00000000
  -V(xc)+E(xc)   XCENC  =       107.81894462
  PAW double counting   =      3117.11917033    -3119.39234170
  entropy T*S    EENTRO =        -0.00000000
  eigenvalues    EBANDS =      -442.26487864
  atomic energy  EATOM  =      1933.18838430
  Solvation  Ediel_sol  =         0.00000000
  ---------------------------------------------------
  free energy    TOTEN  =       -25.62958425 eV

  energy without entropy =      -25.62958425  energy(sigma->0) =      -25.62958425


--------------------------------------------------------------------------------------------------------




--------------------------------------- Iteration      2(   2)  ---------------------------------------


    POTLOK:  cpu time    0.0430: real time    0.0436
    SETDIJ:  cpu time    0.0010: real time    0.0013
    EDDIAG:  cpu time    0.0100: real time    0.0096
  RMM-DIIS:  cpu time    0.0410: real time    0.0406
    ORTHCH:  cpu time    0.0020: real time    0.0025
       DOS:  cpu time    0.0000: real time    0.0001
    CHARGE:  cpu time    0.0070: real time    0.0066
    MIXING:  cpu time    0.0010: real time    0.0014
    --------------------------------------------
      LOOP:  cpu time    0.1050: real time    0.1056

 eigenvalue-minimisations  :    48
 total energy-change (2. order) :-0.4691019E-01  (-0.7359562E-01)
 number of electron      36.0000001 magnetization 
 augmentation part       -3.6461695 magnetization 

 Broyden mixing:
  rms(total) = 0.10821E+00    rms(broyden)= 0.10820E+00
  rms(prec ) = 0.12003E+00
  weight for this iteration     100.00

 eigenvalues of (default mixing * dielectric matrix)
  average eigenvalue GAMMA=   1.1872
  1.1872

 Free energy of the ion-electron system (eV)
  ---------------------------------------------------
  alpha Z        PSCENC =         5.82332350
  Ewald energy   TEWEN  =       476.05181175
  -Hartree energ DENC   =     -2104.62599932
  -exchange      EXHF   =         0.00000000
  -V(xc)+E(xc)   XCENC  =       107.80433917
  PAW double counting   =      3242.98044606    -3245.27676394
  entropy T*S    EENTRO =        -0.00000000
  eigenvalues    EBANDS =      -441.62203596
  atomic energy  EATOM  =      1933.18838430
  Solvation  Ediel_sol  =         0.00000000
  ---------------------------------------------------
  free energy    TOTEN  =       -25.67649444 eV

  energy without entropy =      -25.67649444  energy(sigma->0) =      -25.67649444


--------------------------------------------------------------------------------------------------------




--------------------------------------- Iteration      2(   3)  ---------------------------------------


    POTLOK:  cpu time    0.0440: real time    0.0441
    SETDIJ:  cpu time    0.0020: real time    0.0013
    EDDIAG:  cpu time    0.0090: real time    0.0091
  RMM-DIIS:  cpu time    0.0400: real time    0.0403
    ORTHCH:  cpu time    0.0030: real time    0.0025
       DOS:  cpu time    0.0000: real time    0.0001
    CHARGE:  cpu time    0.0060: real time    0.0066
    MIXING:  cpu time    0.0020: real time    0.0015
    --------------------------------------------
      LOOP:  cpu time    0.1060: real time    0.1055

 eigenvalue-minimisations  :    48
 total energy-change (2. order) : 0.1067564E-01  (-0.3050946E-02)
 number of electron      36.0000001 magnetization 
 augmentation part       -3.6450262 magnetization 

 Broyden mixing:
  rms(total) = 0.46817E-01    rms(broyden)= 0.46815E-01
  rms(prec ) = 0.52768E-01
  weight for this iteration     100.00

 eigenvalues of (default mixing * dielectric matrix)
  average eigenvalue GAMMA=   1.6406
  1.0426  2.2387

 Free energy of the ion-electron system (eV)
  ---------------------------------------------------
  alpha Z        PSCENC =         5.82332350
  Ewald energy   TEWEN  =       476.05181175
  -Hartree energ DENC   =     -2105.45267434
  -exchange      EXHF   =         0.00000000
  -V(xc)+E(xc)   XCENC  =       107.81775314
  PAW double counting   =      3261.63949435    -3263.97328829
  entropy T*S    EENTRO =        -0.00000000
  eigenvalues    EBANDS =      -440.76062320
  atomic energy  EATOM  =      1933.18838430
  Solvation  Ediel_sol  =         0.00000000
  ---------------------------------------------------
  free energy    TOTEN  =       -25.66581880 eV

  energy without entropy =      -25.66581880  energy(sigma->0) =      -25.66581880


--------------------------------------------------------------------------------------------------------




--------------------------------------- Iteration      2(   4)  ---------------------------------------


    POTLOK:  cpu time    0.0440: real time    0.0440
    SETDIJ:  cpu time    0.0010: real time    0.0013
    EDDIAG:  cpu time    0.0090: real time    0.0091
  RMM-DIIS:  cpu time    0.0400: real time    0.0403
    ORTHCH:  cpu time    0.0030: real time    0.0024
       DOS:  cpu time    0.0000: real time    0.0001
    CHARGE:  cpu time    0.0060: real time    0.0066
    MIXING:  cpu time    0.0020: real time    0.0016
    --------------------------------------------
      LOOP:  cpu time    0.1050: real time    0.1054

 eigenvalue-minimisations  :    48
 total energy-change (2. order) : 0.1953443E-02  (-0.1476751E-02)
 number of electron      36.0000001 magnetization 
 augmentation part       -3.6421856 magnetization 

 Broyden mixing:
  rms(total) = 0.11392E-01    rms(broyden)= 0.11390E-01
  rms(prec ) = 0.13190E-01
  weight for this iteration     100.00

 eigenvalues of (default mixing * dielectric matrix)
  average eigenvalue GAMMA=   1.3324
  2.1728  1.0544  0.7701

 Free energy of the ion-electron system (eV)
  ---------------------------------------------------
  alpha Z        PSCENC =         5.82332350
  Ewald energy   TEWEN  =       476.05181175
  -Hartree energ DENC   =     -2106.06108844
  -exchange      EXHF   =         0.00000000
  -V(xc)+E(xc)   XCENC  =       107.82816223
  PAW double counting   =      3275.74456892    -3278.11108139
  entropy T*S    EENTRO =        -0.00000000
  eigenvalues    EBANDS =      -440.12794622
  atomic energy  EATOM  =      1933.18838430
  Solvation  Ediel_sol  =         0.00000000
  ---------------------------------------------------
  free energy    TOTEN  =       -25.66386536 eV

  energy without entropy =      -25.66386536  energy(sigma->0) =      -25.66386536


--------------------------------------------------------------------------------------------------------




--------------------------------------- Iteration      2(   5)  ---------------------------------------


    POTLOK:  cpu time    0.0440: real time    0.0440
    SETDIJ:  cpu time    0.0010: real time    0.0013
    EDDIAG:  cpu time    0.0090: real time    0.0091
  RMM-DIIS:  cpu time    0.0300: real time    0.0299
    ORTHCH:  cpu time    0.0030: real time    0.0025
       DOS:  cpu time    0.0000: real time    0.0001
    --------------------------------------------
      LOOP:  cpu time    0.0870: real time    0.0868

 eigenvalue-minimisations  :    34
 total energy-change (2. order) : 0.9626687E-04  (-0.3702967E-04)
 number of electron      36.0000001 magnetization 
 augmentation part       -3.6421856 magnetization 

 Free energy of the ion-electron system (eV)
  ---------------------------------------------------
  alpha Z        PSCENC =         5.82332350
  Ewald energy   TEWEN  =       476.05181175
  -Hartree energ DENC   =     -2105.92968612
  -exchange      EXHF   =         0.00000000
  -V(xc)+E(xc)   XCENC  =       107.82429834
  PAW double counting   =      3276.49608500    -3278.86055070
  entropy T*S    EENTRO =        -0.00000000
  eigenvalues    EBANDS =      -440.25743516
  atomic energy  EATOM  =      1933.18838430
  Solvation  Ediel_sol  =         0.00000000
  ---------------------------------------------------
  free energy    TOTEN  =       -25.66376909 eV

  energy without entropy =      -25.66376909  energy(sigma->0) =      -25.66376909


--------------------------------------------------------------------------------------------------------




 average (electrostatic) potential at core
  the test charge radii are     0.9406  0.6991
  (the norm of the test charge is              1.0000)
       1-100.9230       2-100.9263       3-100.9199       4-100.9301       5 -60.9176
       6 -60.9198
 
 
 
 E-fermi :  -4.5260     XC(G=0):  -1.8681     alpha+bet : -0.9534


 k-point     1 :       0.0000    0.0000    0.0000
  band No.  band energies     occupation 
      1     -23.3270      2.00000
      2     -22.2695      2.00000
      3     -21.0796      2.00000
      4     -20.5314      2.00000
      5     -16.5233      2.00000
      6     -13.4751      2.00000
      7     -11.8706      2.00000
      8     -11.8490      2.00000
      9     -10.4827      2.00000
     10     -10.1872      2.00000
     11      -8.7955      2.00000
     12      -7.8234      2.00000
     13      -7.7491      2.00000
     14      -7.7174      2.00000
     15      -7.6198      2.00000
     16      -7.4152      2.00000
     17      -6.6345      2.00000
     18      -4.7783      2.00000
     19      -1.4384      0.00000
     20      -0.3572      0.00000
     21      -0.2738      0.00000
     22       0.0751      0.00000
     23       0.0917      0.00000
     24       1.3854      0.00000


--------------------------------------------------------------------------------------------------------


 soft charge-density along one line, spin component           1
         0         1         2         3         4         5         6         7         8         9
 total charge-density along one line
 
 pseudopotential strength for first ion, spin component:           1
 50.469  52.965  -0.057   0.000  -0.035  -0.071   0.000  -0.044
 52.965  55.589  -0.060   0.000  -0.037  -0.075   0.000  -0.046
 -0.057  -0.060   9.452  -0.000   0.010  11.711  -0.000   0.012
  0.000   0.000  -0.000   9.434  -0.000  -0.000  11.690  -0.000
 -0.035  -0.037   0.010  -0.000   9.440   0.012  -0.000  11.697
 -0.071  -0.075  11.711  -0.000   0.012  14.525  -0.000   0.014
  0.000   0.000  -0.000  11.690  -0.000  -0.000  14.501  -0.000
 -0.044  -0.046   0.012  -0.000  11.697   0.014  -0.000  14.510
 total augmentation occupancy for first ion, spin component:           1
 10.935  -9.124   7.062  -0.008   4.130  -3.571   0.004  -2.058
 -9.124   9.224  -6.784   0.008  -3.970   3.587  -0.004   2.073
  7.062  -6.784   6.272  -0.004   2.129  -2.839   0.003  -1.420
 -0.008   0.008  -0.004   2.726  -0.002   0.003  -0.497   0.001
  4.130  -3.970   2.129  -0.002   3.889  -1.420   0.001  -1.226
 -3.571   3.587  -2.839   0.003  -1.420   1.483  -0.001   0.732
  0.004  -0.004   0.003  -0.497   0.001  -0.001   0.263  -0.001
 -2.058   2.073  -1.420   0.001  -1.226   0.732  -0.001   0.618


------------------------ aborting loop because EDIFF is reached ----------------------------------------


    CHARGE:  cpu time    0.0060: real time    0.0066
    FORLOC:  cpu time    0.0040: real time    0.0038
    FORNL :  cpu time    0.0120: real time    0.0124
    STRESS:  cpu time    0.0400: real time    0.0390
    FORCOR:  cpu time    0.0460: real time    0.0467
    FORHAR:  cpu time    0.0120: real time    0.0123
    MIXING:  cpu time    0.0020: real time    0.0017
    OFIELD:  cpu time    0.0000: real time    0.0000

  FORCE on cell =-STRESS in cart. coord.  units (eV):
  Direction    XX          YY          ZZ          XY          YZ          ZX
  --------------------------------------------------------------------------------------
  Alpha Z     5.82332     5.82332     5.82332
  Ewald     694.99429   718.12662  -937.07017    -0.46966    -0.20507    -0.02573
  Hartree  1124.93103  1021.70596   -40.95177    -0.00734    -0.11792    -0.01938
  E(xc)    -133.10008  -132.41511  -134.93655    -0.00130    -0.00038    -0.00002
  Local   -2527.18419 -2399.32808   228.89595     0.39707     0.30865     0.04687
  n-local   325.72119   326.81922   321.23377    -0.03844    -0.00122    -0.00560
  augment   -79.80719   -76.83145   -80.87339    -0.00167    -0.00042     0.00018
  Kinetic   584.73601   539.53473   637.67709     0.07042     0.01438     0.00026
  Fock        0.00000     0.00000     0.00000     0.00000     0.00000     0.00000
  -------------------------------------------------------------------------------------
  Total      -3.88561     3.43520    -0.20174    -0.05092    -0.00198    -0.00342
  in kB      -6.22543     5.50380    -0.32323    -0.08158    -0.00317    -0.00548
  external pressure =       -0.35 kB  Pullay stress =        0.00 kB


 VOLUME and BASIS-vectors are now :
 -----------------------------------------------------------------------------
  energy-cutoff  :      500.00
  volume of cell :     1000.00
      direct lattice vectors                 reciprocal lattice vectors
    10.000000000  0.000000000  0.000000000     0.100000000  0.000000000  0.000000000
     0.000000000 10.000000000  0.000000000     0.000000000  0.100000000  0.000000000
     0.000000000  0.000000000 10.000000000     0.000000000  0.000000000  0.100000000

  length of vectors
    10.000000000 10.000000000 10.000000000     0.100000000  0.100000000  0.100000000


 FORCES acting on ions
    electron-ion (+dipol)            ewald-force                    non-local-force                 convergence-correction
 -----------------------------------------------------------------------------------------------
   -.188E+03 -.235E+03 0.253E+00   0.191E+03 0.241E+03 -.259E+00   -.342E+01 -.547E+01 0.574E-02   -.105E-01 -.896E-01 0.593E-04
   0.188E+03 -.235E+03 -.103E+00   -.192E+03 0.241E+03 0.104E+00   0.345E+01 -.546E+01 -.344E-04   0.122E-01 -.904E-01 -.463E-04
   0.188E+03 0.235E+03 0.189E+00   -.191E+03 -.241E+03 -.196E+00   0.343E+01 0.548E+01 0.110E-01   0.115E-01 0.890E-01 0.924E-04
   -.188E+03 0.235E+03 -.189E+00   0.192E+03 -.242E+03 0.192E+00   -.341E+01 0.543E+01 -.373E-02   -.117E-01 0.906E-01 -.146E-04
   0.538E+02 0.205E-01 -.119E+00   -.460E+02 -.445E-01 0.126E+00   -.332E+01 -.369E-01 -.239E-01   -.732E-01 0.776E-03 -.101E-04
   -.538E+02 -.193E+00 -.338E-01   0.459E+02 0.230E+00 0.332E-01   0.329E+01 0.116E-01 -.202E-02   0.747E-01 -.176E-02 -.701E-05
 -----------------------------------------------------------------------------------------------
   -.277E-01 0.798E-02 -.235E-02   0.639E-13 0.213E-13 0.208E-16   0.135E-01 -.451E-01 -.130E-01   0.312E-02 -.141E-02 0.738E-04
 
 
 POSITION                                       TOTAL-FORCE (eV/Angst)
 -----------------------------------------------------------------------------------
      6.79649      6.38849      5.13799         0.446522      0.615065      0.001499
      3.62506      6.38666      5.13991        -0.435436      0.617266      0.003403
      3.62706      3.50494      5.13847        -0.438489     -0.586884      0.007253
      6.79685      3.50717      5.14031         0.471726     -0.645520      0.002722
      4.48081      4.94722      5.13970         4.474661     -0.053684     -0.014782
      5.94383      4.94662      5.13942        -4.518983      0.053757     -0.000094
[...]
 52.952  55.575  -0.056   0.000  -0.037  -0.069   0.000  -0.045
 -0.053  -0.056   9.447  -0.000   0.010  11.705  -0.000   0.012
  0.000   0.000  -0.000   9.431  -0.000  -0.000  11.686  -0.000
 -0.035  -0.037   0.010  -0.000   9.437   0.012  -0.000  11.694
 -0.066  -0.069  11.705  -0.000   0.012  14.519  -0.000   0.014
  0.000   0.000  -0.000  11.686  -0.000  -0.000  14.496  -0.000
 -0.043  -0.045   0.012  -0.000  11.694   0.014  -0.000  14.505
 total augmentation occupancy for first ion, spin component:           1
 10.357  -8.488   6.504  -0.017   4.030  -3.262   0.008  -1.965
 -8.488   8.539  -6.218   0.016  -3.857   3.260  -0.008   1.973
  6.504  -6.218   5.819  -0.008   2.014  -2.561   0.006  -1.354
 -0.017   0.016  -0.008   2.653  -0.005   0.006  -0.438   0.003
  4.030  -3.857   2.014  -0.005   3.838  -1.354   0.003  -1.200
 -3.262   3.260  -2.561   0.006  -1.354   1.327  -0.003   0.686
  0.008  -0.008   0.006  -0.438   0.003  -0.003   0.222  -0.002
 -1.965   1.973  -1.354   0.003  -1.200   0.686  -0.002   0.593


------------------------ aborting loop because EDIFF is reached ----------------------------------------


    CHARGE:  cpu time    0.0070: real time    0.0064
    FORLOC:  cpu time    0.0040: real time    0.0038
    FORNL :  cpu time    0.0130: real time    0.0123
    STRESS:  cpu time    0.0370: real time    0.0375
    FORCOR:  cpu time    0.0470: real time    0.0463
    FORHAR:  cpu time    0.0120: real time    0.0123
    MIXING:  cpu time    0.0010: real time    0.0014
    OFIELD:  cpu time    0.0010: real time    0.0000

  FORCE on cell =-STRESS in cart. coord.  units (eV):
  Direction    XX          YY          ZZ          XY          YZ          ZX
  --------------------------------------------------------------------------------------
  Alpha Z     5.82332     5.82332     5.82332
  Ewald     721.16547   688.61495  -937.13233    -0.27218    -0.66743    -0.10183
  Hartree  1126.06633  1019.10073   -42.87615    -0.06982    -0.39130    -0.06578
  E(xc)    -132.99379  -132.46104  -134.91411    -0.00074    -0.00123    -0.00024
  Local   -2546.62356 -2371.70011   230.44089     0.30691     1.01447     0.15635
  n-local   325.21984   325.24201   321.86049    -0.01015    -0.00335     0.00363
  augment   -79.79302   -77.07259   -81.12342    -0.00129    -0.00192    -0.00158
  Kinetic   581.06570   542.42090   637.85650     0.04838     0.04755     0.01193
  Fock        0.00000     0.00000     0.00000     0.00000     0.00000     0.00000
  -------------------------------------------------------------------------------------
  Total      -0.06970    -0.03182    -0.06480     0.00112    -0.00321     0.00248
  in kB      -0.11168    -0.05098    -0.10382     0.00180    -0.00515     0.00398
  external pressure =       -0.09 kB  Pullay stress =        0.00 kB


 VOLUME and BASIS-vectors are now :
 -----------------------------------------------------------------------------
  energy-cutoff  :      500.00
  volume of cell :     1000.00
      direct lattice vectors                 reciprocal lattice vectors
    10.000000000  0.000000000  0.000000000     0.100000000  0.000000000  0.000000000
     0.000000000 10.000000000  0.000000000     0.000000000  0.100000000  0.000000000
     0.000000000  0.000000000 10.000000000     0.000000000  0.000000000  0.100000000

  length of vectors
    10.000000000 10.000000000 10.000000000     0.100000000  0.100000000  0.100000000


 FORCES acting on ions
    electron-ion (+dipol)            ewald-force                    non-local-force                 convergence-correction
 -----------------------------------------------------------------------------------------------
   -.188E+03 -.229E+03 0.453E+00   0.192E+03 0.235E+03 -.467E+00   -.396E+01 -.585E+01 0.170E-01   -.292E-02 0.111E-02 -.643E-03
   0.188E+03 -.229E+03 0.626E-01   -.192E+03 0.234E+03 -.599E-01   0.399E+01 -.583E+01 -.112E-02   0.366E-02 0.234E-02 -.165E-02
   0.188E+03 0.229E+03 0.976E-01   -.192E+03 -.234E+03 -.104E+00   0.397E+01 0.583E+01 0.987E-02   0.244E-04 0.589E-03 0.586E-03
   -.188E+03 0.229E+03 -.755E-01   0.192E+03 -.235E+03 0.713E-01   -.396E+01 0.582E+01 0.738E-02   -.154E-02 -.269E-02 0.156E-03
   0.703E+02 -.281E-01 -.102E+00   -.660E+02 0.231E-01 0.946E-01   -.427E+01 -.188E-02 0.133E-01   0.128E-03 0.281E-03 -.175E-03
   -.705E+02 0.382E-01 -.443E+00   0.662E+02 -.244E-01 0.465E+00   0.428E+01 -.188E-01 -.176E-01   -.382E-03 0.867E-03 -.962E-04
 -----------------------------------------------------------------------------------------------
   -.233E-01 0.833E-02 -.786E-02   -.426E-13 0.142E-13 0.555E-16   0.492E-01 -.416E-01 0.289E-01   -.104E-02 0.250E-02 -.182E-02
 
 
 POSITION                                       TOTAL-FORCE (eV/Angst)
 -----------------------------------------------------------------------------------
      6.79912      6.39569      5.13714        -0.002366     -0.002949     -0.000960
      3.62284      6.39452      5.13906         0.006858      0.001618     -0.003242
      3.62280      3.49927      5.13902        -0.000403      0.004119      0.000469
      6.80024      3.49848      5.14010        -0.001755     -0.002321      0.000081
      4.53495      4.94695      5.13983        -0.021116     -0.001471      0.002260
      5.89015      4.94619      5.14067         0.018782      0.001003      0.001393
 -----------------------------------------------------------------------------------
    total drift:                                0.024839     -0.030738      0.019190


--------------------------------------------------------------------------------------------------------



  FREE ENERGIE OF THE ION-ELECTRON SYSTEM (eV)
  ---------------------------------------------------
  free  energy   TOTEN  =       -25.93751605 eV

  energy  without entropy=      -25.93751605  energy(sigma->0) =      -25.93751605
 
 d Force = 0.2161063E-07[-0.234E-05, 0.239E-05]  d Energy = 0.3221862E-06-0.301E-06
 d Force =-0.6847497E-02[-0.685E-02,-0.684E-02]  d Ewald  =-0.6847496E-02-0.198E-09


--------------------------------------------------------------------------------------------------------


    POTLOK:  cpu time    0.0440: real time    0.0445


--------------------------------------------------------------------------------------------------------


 stress matrix after NEB project (eV)
     -0.06970      0.00112      0.00248
      0.00112     -0.03182     -0.00321
      0.00248     -0.00321     -0.06480
  FORCES: max atom, RMS     0.021288    0.012316
  FORCE total and by dimension    0.030168    0.021116
  Stress total and by dimension    0.100525    0.069703


--------------------------------------------------------------------------------------------------------


    WAVPRE:  cpu time    0.0130: real time    0.0146
    FEWALD:  cpu time    0.0000: real time    0.0001

 real space projection operators:
  total allocation   :        372.38 KBytes
  max/ min on nodes  :         75.50         73.44

    ORTHCH:  cpu time    0.0050: real time    0.0051
     LOOP+:  cpu time    0.3489: real time    0.3529


--------------------------------------- Iteration     30(   1)  ---------------------------------------


    POTLOK:  cpu time    0.0430: real time    0.0445
    SETDIJ:  cpu time    0.0010: real time    0.0013
     EDDAV:  cpu time    0.0340: real time    0.0339
       DOS:  cpu time    0.0000: real time    0.0001
    CHARGE:  cpu time    0.0060: real time    0.0059
    MIXING:  cpu time    0.0020: real time    0.0013
    --------------------------------------------
      LOOP:  cpu time    0.0860: real time    0.0869

 eigenvalue-minimisations  :    24
 total energy-change (2. order) :-0.6867542E-06  (-0.1133294E-05)
 number of electron      35.9999994 magnetization 
 augmentation part       -3.6415749 magnetization 

 Broyden mixing:
  rms(total) = 0.23167E-03    rms(broyden)= 0.23165E-03
  rms(prec ) = 0.26978E-03
  weight for this iteration     100.00

 Free energy of the ion-electron system (eV)
  ---------------------------------------------------
  alpha Z        PSCENC =         5.82332350
  Ewald energy   TEWEN  =       472.64579092
  -Hartree energ DENC   =     -2102.28826353
  -exchange      EXHF   =         0.00000000
  -V(xc)+E(xc)   XCENC  =       107.78204595
  PAW double counting   =      3204.38060631    -3206.70363279
  entropy T*S    EENTRO =        -0.00000000
  eigenvalues    EBANDS =      -440.76577114
  atomic energy  EATOM  =      1933.18838430
  Solvation  Ediel_sol  =         0.00000000
  ---------------------------------------------------
  free energy    TOTEN  =       -25.93751649 eV

  energy without entropy =      -25.93751649  energy(sigma->0) =      -25.93751649


--------------------------------------------------------------------------------------------------------




--------------------------------------- Iteration     30(   2)  ---------------------------------------


    POTLOK:  cpu time    0.0440: real time    0.0440
    SETDIJ:  cpu time    0.0010: real time    0.0013
    EDDIAG:  cpu time    0.0100: real time    0.0100
  RMM-DIIS:  cpu time    0.0130: real time    0.0130
    ORTHCH:  cpu time    0.0020: real time    0.0020
       DOS:  cpu time    0.0000: real time    0.0001
    --------------------------------------------
      LOOP:  cpu time    0.0700: real time    0.0703

 eigenvalue-minimisations  :     0
 total energy-change (2. order) : 0.1065423E-06  ( 0.0000000E+00)
 number of electron      35.9999994 magnetization 
 augmentation part       -3.6415749 magnetization 

 Free energy of the ion-electron system (eV)
  ---------------------------------------------------
  alpha Z        PSCENC =         5.82332350
  Ewald energy   TEWEN  =       472.64579092
  -Hartree energ DENC   =     -2102.28788103
  -exchange      EXHF   =         0.00000000
  -V(xc)+E(xc)   XCENC  =       107.78201693
  PAW double counting   =      3204.39147984    -3206.71450019
  entropy T*S    EENTRO =        -0.00000000
  eigenvalues    EBANDS =      -440.76613064
  atomic energy  EATOM  =      1933.18838430
  Solvation  Ediel_sol  =         0.00000000
  ---------------------------------------------------
  free energy    TOTEN  =       -25.93751638 eV

  energy without entropy =      -25.93751638  energy(sigma->0) =      -25.93751638


--------------------------------------------------------------------------------------------------------




 average (electrostatic) potential at core
  the test charge radii are     0.9406  0.6991
  (the norm of the test charge is              1.0000)
       1-100.9010       2-100.9014       3-100.8998       4-100.9063       5 -61.0272
       6 -61.0284
 
 
 
 E-fermi :  -4.9952     XC(G=0):  -1.8222     alpha+bet : -0.9534


 k-point     1 :       0.0000    0.0000    0.0000
  band No.  band energies     occupation 
      1     -23.2930      2.00000
      2     -22.0144      2.00000
      3     -20.9544      2.00000
      4     -20.3664      2.00000
      5     -17.2910      2.00000
      6     -13.3795      2.00000
      7     -11.9588      2.00000
      8     -11.9065      2.00000
      9     -10.2675      2.00000
     10     -10.2064      2.00000
     11      -8.6067      2.00000
     12      -7.9898      2.00000
     13      -7.7323      2.00000
     14      -7.6808      2.00000
     15      -7.5301      2.00000
     16      -7.3750      2.00000
     17      -6.5953      2.00000
     18      -5.2352      2.00000
     19      -1.1415      0.00000
     20      -0.6486      0.00000
     21      -0.5383      0.00000
     22      -0.5337      0.00000
     23       0.0773      0.00000
     24       1.3520      0.00000


--------------------------------------------------------------------------------------------------------


 soft charge-density along one line, spin component           1
         0         1         2         3         4         5         6         7         8         9
 total charge-density along one line
 
 pseudopotential strength for first ion, spin component:           1
 50.456  52.952  -0.053   0.000  -0.035  -0.066   0.000  -0.043
 52.952  55.575  -0.056   0.000  -0.037  -0.069   0.000  -0.045
 -0.053  -0.056   9.447  -0.000   0.010  11.705  -0.000   0.012
  0.000   0.000  -0.000   9.431  -0.000  -0.000  11.686  -0.000
 -0.035  -0.037   0.010  -0.000   9.437   0.012  -0.000  11.694
 -0.066  -0.069  11.705  -0.000   0.012  14.519  -0.000   0.014
  0.000   0.000  -0.000  11.686  -0.000  -0.000  14.496  -0.000
 -0.043  -0.045   0.012  -0.000  11.694   0.014  -0.000  14.505
 total augmentation occupancy for first ion, spin component:           1
 10.358  -8.488   6.504  -0.017   4.031  -3.262   0.008  -1.965
 -8.488   8.540  -6.218   0.016  -3.858   3.260  -0.008   1.973
  6.504  -6.218   5.820  -0.008   2.014  -2.561   0.006  -1.354
 -0.017   0.016  -0.008   2.653  -0.005   0.006  -0.438   0.003
  4.031  -3.858   2.014  -0.005   3.838  -1.354   0.003  -1.200
 -3.262   3.260  -2.561   0.006  -1.354   1.327  -0.003   0.686
  0.008  -0.008   0.006  -0.438   0.003  -0.003   0.222  -0.002
 -1.965   1.973  -1.354   0.003  -1.200   0.686  -0.002   0.593


------------------------ aborting loop because EDIFF is reached ----------------------------------------


    CHARGE:  cpu time    0.0060: real time    0.0065
    FORLOC:  cpu time    0.0040: real time    0.0038
    FORNL :  cpu time    0.0120: real time    0.0123
    STRESS:  cpu time    0.0380: real time    0.0373
    FORCOR:  cpu time    0.0460: real time    0.0464
    FORHAR:  cpu time    0.0120: real time    0.0122
    MIXING:  cpu time    0.0020: real time    0.0014
    OFIELD:  cpu time    0.0000: real time    0.0000

  FORCE on cell =-STRESS in cart. coord.  units (eV):
  Direction    XX          YY          ZZ          XY          YZ          ZX
  --------------------------------------------------------------------------------------
  Alpha Z     5.82332     5.82332     5.82332
  Ewald     721.15420   688.62297  -937.13248    -0.27934    -0.66135    -0.10358
  Hartree  1126.06402  1019.09936   -42.87622    -0.06851    -0.39027    -0.06631
  E(xc)    -132.99380  -132.46098  -134.91408    -0.00076    -0.00122    -0.00024
  Local   -2546.61558 -2371.70316   230.44187     0.30979     1.00834     0.15855
  n-local   325.21935   325.24330   321.85937    -0.01053    -0.00353     0.00362
  augment   -79.79297   -77.07244   -81.12327    -0.00130    -0.00191    -0.00156
  Kinetic   581.06699   542.41691   637.85502     0.04929     0.04755     0.01185
  Fock        0.00000     0.00000     0.00000     0.00000     0.00000     0.00000
  -------------------------------------------------------------------------------------
  Total      -0.07447    -0.03070    -0.06646    -0.00135    -0.00239     0.00233
  in kB      -0.11931    -0.04919    -0.10648    -0.00216    -0.00384     0.00373
  external pressure =       -0.09 kB  Pullay stress =        0.00 kB


 VOLUME and BASIS-vectors are now :
 -----------------------------------------------------------------------------
  energy-cutoff  :      500.00
  volume of cell :     1000.00
      direct lattice vectors                 reciprocal lattice vectors
    10.000000000  0.000000000  0.000000000     0.100000000  0.000000000  0.000000000
     0.000000000 10.000000000  0.000000000     0.000000000  0.100000000  0.000000000
     0.000000000  0.000000000 10.000000000     0.000000000  0.000000000  0.100000000

  length of vectors
    10.000000000 10.000000000 10.000000000     0.100000000  0.100000000  0.100000000


 FORCES acting on ions
    electron-ion (+dipol)            ewald-force                    non-local-force                 convergence-correction
 -----------------------------------------------------------------------------------------------
   -.188E+03 -.229E+03 0.448E+00   0.192E+03 0.235E+03 -.466E+00   -.396E+01 -.585E+01 0.179E-01   0.288E-02 -.126E-02 0.445E-03
   0.188E+03 -.229E+03 0.503E-01   -.192E+03 0.234E+03 -.574E-01   0.398E+01 -.583E+01 0.206E-02   -.339E-02 -.238E-02 0.138E-02
   0.188E+03 0.229E+03 0.102E+00   -.192E+03 -.234E+03 -.105E+00   0.397E+01 0.583E+01 0.863E-02   -.262E-03 -.233E-03 -.454E-03
   -.188E+03 0.229E+03 -.744E-01   0.192E+03 -.235E+03 0.717E-01   -.396E+01 0.583E+01 0.681E-02   0.135E-02 0.303E-02 -.228E-03
   0.703E+02 -.279E-01 -.103E+00   -.660E+02 0.232E-01 0.949E-01   -.426E+01 -.245E-02 0.131E-01   -.550E-03 -.369E-03 0.152E-03
   -.705E+02 0.364E-01 -.440E+00   0.662E+02 -.190E-01 0.462E+00   0.428E+01 -.183E-01 -.170E-01   0.101E-02 -.932E-03 0.659E-04
 -----------------------------------------------------------------------------------------------
   -.266E-01 0.154E-01 -.157E-01   0.284E-13 -.142E-13 0.111E-15   0.491E-01 -.419E-01 0.316E-01   0.105E-02 -.215E-02 0.136E-02
 
 
 POSITION                                       TOTAL-FORCE (eV/Angst)
 -----------------------------------------------------------------------------------
      6.79914      6.39569      5.13714        -0.007469     -0.001372     -0.001655
      3.62281      6.39449      5.13907         0.013842      0.008659     -0.006571
      3.62281      3.49926      5.13901        -0.000833      0.005376      0.002241
      6.80025      3.49851      5.14010        -0.002769     -0.012918      0.001032
      4.53491      4.94696      5.13982        -0.012148     -0.002676      0.002527
      5.89019      4.94619      5.14066         0.009377      0.002931      0.002427
 -----------------------------------------------------------------------------------
    total drift:                                0.023579     -0.028624      0.017195


--------------------------------------------------------------------------------------------------------



  FREE ENERGIE OF THE ION-ELECTRON SYSTEM (eV)
  ---------------------------------------------------
  free  energy   TOTEN  =       -25.93751638 eV

  energy  without entropy=      -25.93751638  energy(sigma->0) =      -25.93751638
 
 d Force = 0.3090498E-06[-0.543E-06, 0.116E-05]  d Energy = 0.3313810E-06-0.223E-07
 d Force = 0.3393404E-02[ 0.339E-02, 0.339E-02]  d Ewald  = 0.3393404E-02 0.722E-10


--------------------------------------------------------------------------------------------------------


    POTLOK:  cpu time    0.0440: real time    0.0456


--------------------------------------------------------------------------------------------------------


 stress matrix after NEB project (eV)
     -0.07447     -0.00135      0.00233
     -0.00135     -0.03070     -0.00239
      0.00233     -0.00239     -0.06646
  FORCES: max atom, RMS     0.017600    0.011860
  FORCE total and by dimension    0.029051    0.013842
  Stress total and by dimension    0.104551    0.074467


--------------------------------------------------------------------------------------------------------


  
 reached required accuracy - stopping structural energy minimisation
     LOOP+:  cpu time    0.3250: real time    0.3299
    4ORBIT:  cpu time    0.0000: real time    0.0000

 total amount of memory used by VASP MPI-rank0    40167. kBytes
=======================================================================

   base      :      30000. kBytes
   nonlr-proj:        210. kBytes
   fftplans  :       3677. kBytes
   grid      :       5784. kBytes
   one-center:          6. kBytes
   wavefun   :        490. kBytes
 
  
  
 General timing and accounting informations for this job:
 ========================================================
  
                  Total CPU time used (sec):       14.746
                            User time (sec):       14.029
                          System time (sec):        0.717
                         Elapsed time (sec):       15.159
  
                   Maximum memory used (kb):      157680.
                   Average memory used (kb):           0.
  
                          Minor page faults:        77683
                          Major page faults:            0
                 Voluntary context switches:         1209
