 Entering Gaussian System, Link 0=/opt/Gaussian/g09-d01-bipbip-intel//g09/g09
 Initial command:
 /opt/Gaussian/g09-d01-bipbip-intel//g09/l1.exe "/tmp/pce-example-gopt-pop.gjf/Gau-99831.inp" -scrdir="/tmp/pce-example-gopt-pop.gjf/"
 Entering Link 1 = /opt/Gaussian/g09-d01-bipbip-intel//g09/l1.exe PID=     99832.
  
 Copyright (c) 1988,1990,1992,1993,1995,1998,2003,2009,2013,
            Gaussian, Inc.  All Rights Reserved.
  
 This is part of the Gaussian(R) 09 program.  It is based on
 the Gaussian(R) 03 system (copyright 2003, Gaussian, Inc.),
 the Gaussian(R) 98 system (copyright 1998, Gaussian, Inc.),
 the Gaussian(R) 94 system (copyright 1995, Gaussian, Inc.),
 the Gaussian 92(TM) system (copyright 1992, Gaussian, Inc.),
 the Gaussian 90(TM) system (copyright 1990, Gaussian, Inc.),
 the Gaussian 88(TM) system (copyright 1988, Gaussian, Inc.),
 the Gaussian 86(TM) system (copyright 1986, Carnegie Mellon
 University), and the Gaussian 82(TM) system (copyright 1983,
 Carnegie Mellon University). Gaussian is a federally registered
 trademark of Gaussian, Inc.
  
 This software contains proprietary and confidential information,
 including trade secrets, belonging to Gaussian, Inc.
  
 This software is provided under written license and may be
 used, copied, transmitted, or stored only in accord with that
 written license.
  
 The following legend is applicable only to US Government
 contracts under FAR:
  
                    RESTRICTED RIGHTS LEGEND
  
 Use, reproduction and disclosure by the US Government is
 subject to restrictions as set forth in subparagraphs (a)
 and (c) of the Commercial Computer Software - Restricted
 Rights clause in FAR 52.227-19.
  
 Gaussian, Inc.
 340 Quinnipiac St., Bldg. 40, Wallingford CT 06492
  
  
 ---------------------------------------------------------------
 Warning -- This program may not be used in any manner that
 competes with the business of Gaussian, Inc. or will provide
 assistance to any competitor of Gaussian, Inc.  The licensee
 of this program is prohibited from giving any competitor of
 Gaussian, Inc. access to this program.  By using this program,
 the user acknowledges that Gaussian, Inc. is engaged in the
 business of creating and licensing software in the field of
 computational chemistry and represents and warrants to the
 licensee that it is not a competitor of Gaussian, Inc. and that
 it will not use this program in any manner prohibited above.
 ---------------------------------------------------------------
  

 Cite this work as:
 Gaussian 09, Revision D.01,
 M. J. Frisch, G. W. Trucks, H. B. Schlegel, G. E. Scuseria, 
 M. A. Robb, J. R. Cheeseman, G. Scalmani, V. Barone, B. Mennucci, 
 G. A. Petersson, H. Nakatsuji, M. Caricato, X. Li, H. P. Hratchian, 
 A. F. Izmaylov, J. Bloino, G. Zheng, J. L. Sonnenberg, M. Hada, 
 M. Ehara, K. Toyota, R. Fukuda, J. Hasegawa, M. Ishida, T. Nakajima, 
 Y. Honda, O. Kitao, H. Nakai, T. Vreven, J. A. Montgomery, Jr., 
 J. E. Peralta, F. Ogliaro, M. Bearpark, J. J. Heyd, E. Brothers, 
 K. N. Kudin, V. N. Staroverov, T. Keith, R. Kobayashi, J. Normand, 
 K. Raghavachari, A. Rendell, J. C. Burant, S. S. Iyengar, J. Tomasi, 
 M. Cossi, N. Rega, J. M. Millam, M. Klene, J. E. Knox, J. B. Cross, 
 V. Bakken, C. Adamo, J. Jaramillo, R. Gomperts, R. E. Stratmann, 
 O. Yazyev, A. J. Austin, R. Cammi, C. Pomelli, J. W. Ochterski, 
 R. L. Martin, K. Morokuma, V. G. Zakrzewski, G. A. Voth, 
 P. Salvador, J. J. Dannenberg, S. Dapprich, A. D. Daniels, 
 O. Farkas, J. B. Foresman, J. V. Ortiz, J. Cioslowski, 
 and D. J. Fox, Gaussian, Inc., Wallingford CT, 2013.
 
 ******************************************
 Gaussian 09:  ES64L-G09RevD.01 24-Apr-2013
                 9-Jul-2021 
 ******************************************
 %chk=pce-example-gopt-pop.chk
 %nprocshared=20
 Will use up to   20 processors via shared memory.
 %mem=64000MB
 ----------------------------------------------------
 #p b3lyp/tzvp opt empiricaldispersion=gd3bj pop=full
 ----------------------------------------------------
 1/14=-1,18=20,19=15,26=3,38=1/1,3;
 2/9=110,12=2,17=6,18=5,40=1/2;
 3/5=19,7=101,11=2,16=1,25=1,30=1,71=1,74=-5,124=41/1,2,3;
 4//1;
 5/5=2,38=5/2;
 6/7=3,28=1/1;
 7//1,2,3,16;
 1/14=-1,18=20,19=15,26=3/3(2);
 2/9=110/2;
 99//99;
 2/9=110/2;
 3/5=19,7=101,11=2,16=1,25=1,30=1,71=1,74=-5,124=41/1,2,3;
 4/5=5,16=3,69=1/1;
 5/5=2,38=5/2;
 7//1,2,3,16;
 1/14=-1,18=20,19=15,26=3/3(-5);
 2/9=110/2;
 6/7=3,19=2,28=1/1;
 99/9=1/99;
 Leave Link    1 at Fri Jul  9 15:16:31 2021, MaxMem=  8388608000 cpu:         1.8
 (Enter /opt/Gaussian/g09-d01-bipbip-intel//g09/l101.exe)
 ------------------------
 pce-example optimization
 ------------------------
 Symbolic Z-matrix:
 Charge =  0 Multiplicity = 1
 Cl                   -1.0615   -3.181    -3.3495 
 Cl                    1.8371   -2.1425   -2.4706 
 Cl                    0.6116    0.1712   -1.1755 
 C                     0.3801   -1.2767   -2.0848 
 C                    -0.8262   -1.7061   -2.4652 
 Cl                   -2.2712   -0.8335   -2.0814 
 
 NAtoms=      6 NQM=        6 NQMF=       0 NMMI=      0 NMMIF=      0
                NMic=       0 NMicF=      0.
                    Isotopes and Nuclear Properties:
 (Nuclear quadrupole moments (NQMom) in fm**2, nuclear magnetic moments (NMagM)
  in nuclear magnetons)

  Atom         1           2           3           4           5           6
 IAtWgt=          35          35          35          12          12          35
 AtmWgt=  34.9688527  34.9688527  34.9688527  12.0000000  12.0000000  34.9688527
 NucSpn=           3           3           3           0           0           3
 AtZEff=   0.0000000   0.0000000   0.0000000   0.0000000   0.0000000   0.0000000
 NQMom=   -8.1650000  -8.1650000  -8.1650000   0.0000000   0.0000000  -8.1650000
 NMagM=    0.8218740   0.8218740   0.8218740   0.0000000   0.0000000   0.8218740
 AtZNuc=  17.0000000  17.0000000  17.0000000   6.0000000   6.0000000  17.0000000
 Leave Link  101 at Fri Jul  9 15:16:31 2021, MaxMem=  8388608000 cpu:         1.8
 (Enter /opt/Gaussian/g09-d01-bipbip-intel//g09/l103.exe)

 GradGradGradGradGradGradGradGradGradGradGradGradGradGradGradGradGradGrad
 Berny optimization.
 Initialization pass.
                           ----------------------------
                           !    Initial Parameters    !
                           ! (Angstroms and Degrees)  !
 --------------------------                            --------------------------
 ! Name  Definition              Value          Derivative Info.                !
 --------------------------------------------------------------------------------
 ! R1    R(1,5)                  1.7357         estimate D2E/DX2                !
 ! R2    R(2,4)                  1.7382         estimate D2E/DX2                !
 ! R3    R(3,4)                  1.7254         estimate D2E/DX2                !
 ! R4    R(4,5)                  1.3358         estimate D2E/DX2                !
 ! R5    R(5,6)                  1.7311         estimate D2E/DX2                !
 ! A1    A(2,4,3)              114.9932         estimate D2E/DX2                !
 ! A2    A(2,4,5)              122.2529         estimate D2E/DX2                !
 ! A3    A(3,4,5)              122.7538         estimate D2E/DX2                !
 ! A4    A(1,5,4)              122.7298         estimate D2E/DX2                !
 ! A5    A(1,5,6)              115.3485         estimate D2E/DX2                !
 ! A6    A(4,5,6)              121.9139         estimate D2E/DX2                !
 ! D1    D(2,4,5,1)              1.31           estimate D2E/DX2                !
 ! D2    D(2,4,5,6)           -179.757          estimate D2E/DX2                !
 ! D3    D(3,4,5,1)           -178.6024         estimate D2E/DX2                !
 ! D4    D(3,4,5,6)              0.3306         estimate D2E/DX2                !
 --------------------------------------------------------------------------------
 Trust Radius=3.00D-01 FncErr=1.00D-07 GrdErr=1.00D-06
 Number of steps in this run=     25 maximum allowed number of steps=    100.
 GradGradGradGradGradGradGradGradGradGradGradGradGradGradGradGradGradGrad

 Leave Link  103 at Fri Jul  9 15:16:31 2021, MaxMem=  8388608000 cpu:         0.0
 (Enter /opt/Gaussian/g09-d01-bipbip-intel//g09/l202.exe)
                          Input orientation:                          
 ---------------------------------------------------------------------
 Center     Atomic      Atomic             Coordinates (Angstroms)
 Number     Number       Type             X           Y           Z
 ---------------------------------------------------------------------
      1         17           0       -1.061500   -3.181000   -3.349500
      2         17           0        1.837100   -2.142500   -2.470600
      3         17           0        0.611600    0.171200   -1.175500
      4          6           0        0.380100   -1.276700   -2.084800
      5          6           0       -0.826200   -1.706100   -2.465200
      6         17           0       -2.271200   -0.833500   -2.081400
 ---------------------------------------------------------------------
                    Distance matrix (angstroms):
                    1          2          3          4          5
     1  Cl   0.000000
     2  Cl   3.202004   0.000000
     3  Cl   4.331603   2.921017   0.000000
     4  C    2.702598   1.738189   1.725350   0.000000
     5  C    1.735708   2.698822   2.693483   1.335758   0.000000
     6  Cl   2.929541   4.329329   3.184433   2.688090   1.731115
                    6
     6  Cl   0.000000
 Stoichiometry    C2Cl4
 Framework group  C1[X(C2Cl4)]
 Deg. of freedom    12
 Full point group                 C1      NOp   1
 Largest Abelian subgroup         C1      NOp   1
 Largest concise Abelian subgroup C1      NOp   1
                         Standard orientation:                         
 ---------------------------------------------------------------------
 Center     Atomic      Atomic             Coordinates (Angstroms)
 Number     Number       Type             X           Y           Z
 ---------------------------------------------------------------------
      1         17           0        1.605913    1.460195    0.011674
      2         17           0       -1.596016    1.465687   -0.009506
      3         17           0       -1.597668   -1.455255    0.011383
      4          6           0       -0.666309   -0.002955   -0.003675
      5          6           0        0.669438   -0.001064   -0.008793
      6         17           0        1.586668   -1.469208   -0.009151
 ---------------------------------------------------------------------
 Rotational constants (GHZ):      1.6888962      1.3760266      0.7582837
 Leave Link  202 at Fri Jul  9 15:16:32 2021, MaxMem=  8388608000 cpu:         0.5
 (Enter /opt/Gaussian/g09-d01-bipbip-intel//g09/l301.exe)
 Standard basis: TZVP (5D, 7F)
 Ernie: Thresh=  0.10000D-02 Tol=  0.10000D-05 Strict=F.
 There are   132 symmetry adapted cartesian basis functions of A   symmetry.
 There are   126 symmetry adapted basis functions of A   symmetry.
   126 basis functions,   258 primitive gaussians,   132 cartesian basis functions
    40 alpha electrons       40 beta electrons
       nuclear repulsion energy       489.9439157411 Hartrees.
 IExCor=  402 DFT=T Ex+Corr=B3LYP ExCW=0 ScaHFX=  0.200000
 ScaDFX=  0.800000  0.720000  1.000000  0.810000 ScalE2=  1.000000  1.000000
 IRadAn=      0 IRanWt=     -1 IRanGd=            0 ICorTp=0 IEmpDi=141
 NAtoms=    6 NActive=    6 NUniq=    6 SFac= 1.00D+00 NAtFMM=   60 NAOKFM=F Big=F
 Integral buffers will be    131072 words long.
 Raffenetti 2 integral format.
 Two-electron integral symmetry is turned on.
 R6Disp:  Grimme-D3(BJ) Dispersion energy=       -0.0176972227 Hartrees.
 Nuclear repulsion after empirical dispersion term =      489.9262185185 Hartrees.
 Leave Link  301 at Fri Jul  9 15:16:32 2021, MaxMem=  8388608000 cpu:         0.6
 (Enter /opt/Gaussian/g09-d01-bipbip-intel//g09/l302.exe)
 NPDir=0 NMtPBC=     1 NCelOv=     1 NCel=       1 NClECP=     1 NCelD=      1
         NCelK=      1 NCelE2=     1 NClLst=     1 CellRange=     0.0.
 One-electron integrals computed using PRISM.
 NBasis=   126 RedAO= T EigKep=  3.42D-04  NBF=   126
 NBsUse=   126 1.00D-06 EigRej= -1.00D+00 NBFU=   126
 Precomputing XC quadrature grid using
 IXCGrd= 4 IRadAn=           0 IRanWt=          -1 IRanGd=           0 AccXCQ= 0.00D+00.
 Generated NRdTot=       0 NPtTot=           0 NUsed=           0 NTot=          32
 NSgBfM=   130   130   130   130   130 MxSgAt=     6 MxSgA2=     6.
 Leave Link  302 at Fri Jul  9 15:16:33 2021, MaxMem=  8388608000 cpu:         9.1
 (Enter /opt/Gaussian/g09-d01-bipbip-intel//g09/l303.exe)
 DipDrv:  MaxL=1.
 Leave Link  303 at Fri Jul  9 15:16:34 2021, MaxMem=  8388608000 cpu:         4.5
 (Enter /opt/Gaussian/g09-d01-bipbip-intel//g09/l401.exe)
 ExpMin= 9.52D-02 ExpMax= 6.95D+04 ExpMxC= 2.37D+03 IAcc=2 IRadAn=         4 AccDes= 0.00D+00
 Harris functional with IExCor=  402 and IRadAn=       4 diagonalized for initial guess.
 HarFok:  IExCor=  402 AccDes= 0.00D+00 IRadAn=         4 IDoV= 1 UseB2=F ITyADJ=14
 ICtDFT=  3500011 ScaDFX=  1.000000  1.000000  1.000000  1.000000
 FoFCou: FMM=F IPFlag=           0 FMFlag=      100000 FMFlg1=           0
         NFxFlg=           0 DoJE=T BraDBF=F KetDBF=T FulRan=T
         wScrn=  0.000000 ICntrl=     500 IOpCl=  0 I1Cent=   200000004 NGrid=           0
         NMat0=    1 NMatS0=      1 NMatT0=    0 NMatD0=    1 NMtDS0=    0 NMtDT0=    0
 Petite list used in FoFCou.
 Harris En= -1916.81489896779    
 JPrj=0 DoOrth=F DoCkMO=F.
 Leave Link  401 at Fri Jul  9 15:16:38 2021, MaxMem=  8388608000 cpu:        43.7
 (Enter /opt/Gaussian/g09-d01-bipbip-intel//g09/l502.exe)
 Closed shell SCF:
 Using DIIS extrapolation, IDIIS=  1040.
 Integral symmetry usage will be decided dynamically.
 Keep R1 ints in memory in canonical form, NReq=33262703.
 IVT=       74450 IEndB=       74450 NGot=  8388608000 MDV=  8356521550
 LenX=  8356521550 LenY=  8356503685
 Requested convergence on RMS density matrix=1.00D-08 within 128 cycles.
 Requested convergence on MAX density matrix=1.00D-06.
 Requested convergence on             energy=1.00D-06.
 No special actions if energy rises.
 FoFCou: FMM=F IPFlag=           0 FMFlag=           0 FMFlg1=           0
         NFxFlg=           0 DoJE=F BraDBF=F KetDBF=F FulRan=T
         wScrn=  0.000000 ICntrl=     600 IOpCl=  0 I1Cent=           0 NGrid=           0
         NMat0=    1 NMatS0=   8001 NMatT0=    0 NMatD0=    1 NMtDS0=    0 NMtDT0=    0
 Symmetry not used in FoFCou.
 Integral accuracy reduced to 1.0D-05 until final iterations.

 Cycle   1  Pass 0  IDiag  1:
 E= -1917.05972196097    
 DIIS: error= 3.42D-02 at cycle   1 NSaved=   1.
 NSaved= 1 IEnMin= 1 EnMin= -1917.05972196097     IErMin= 1 ErrMin= 3.42D-02
 ErrMax= 3.42D-02  0.00D+00 EMaxC= 1.00D-01 BMatC= 1.10D-01 BMatP= 1.10D-01
 IDIUse=3 WtCom= 6.58D-01 WtEn= 3.42D-01
 Coeff-Com:  0.100D+01
 Coeff-En:   0.100D+01
 Coeff:      0.100D+01
 Gap=     0.237 Goal=   None    Shift=    0.000
 GapD=    0.237 DampG=1.000 DampE=0.500 DampFc=0.5000 IDamp=-1.
 Damping current iteration by 5.00D-01
 RMSDP=2.14D-03 MaxDP=3.07D-02              OVMax= 8.49D-02

 Cycle   2  Pass 0  IDiag  1:
 E= -1917.07429291894     Delta-E=       -0.014570957971 Rises=F Damp=T
 DIIS: error= 1.48D-02 at cycle   2 NSaved=   2.
 NSaved= 2 IEnMin= 2 EnMin= -1917.07429291894     IErMin= 2 ErrMin= 1.48D-02
 ErrMax= 1.48D-02  0.00D+00 EMaxC= 1.00D-01 BMatC= 1.77D-02 BMatP= 1.10D-01
 IDIUse=3 WtCom= 8.52D-01 WtEn= 1.48D-01
 Coeff-Com: -0.330D+00 0.133D+01
 Coeff-En:   0.000D+00 0.100D+01
 Coeff:     -0.282D+00 0.128D+01
 Gap=     0.221 Goal=   None    Shift=    0.000
 RMSDP=1.72D-03 MaxDP=3.49D-02 DE=-1.46D-02 OVMax= 7.27D-02

 Cycle   3  Pass 0  IDiag  1:
 E= -1917.07459147795     Delta-E=       -0.000298559010 Rises=F Damp=F
 DIIS: error= 1.45D-02 at cycle   3 NSaved=   3.
 NSaved= 3 IEnMin= 3 EnMin= -1917.07459147795     IErMin= 3 ErrMin= 1.45D-02
 ErrMax= 1.45D-02  0.00D+00 EMaxC= 1.00D-01 BMatC= 1.82D-02 BMatP= 1.77D-02
 IDIUse=3 WtCom= 8.55D-01 WtEn= 1.45D-01
 Coeff-Com: -0.336D+00 0.837D+00 0.500D+00
 Coeff-En:   0.000D+00 0.492D+00 0.508D+00
 Coeff:     -0.288D+00 0.787D+00 0.501D+00
 Gap=     0.226 Goal=   None    Shift=    0.000
 RMSDP=1.88D-03 MaxDP=5.27D-02 DE=-2.99D-04 OVMax= 4.51D-02

 Cycle   4  Pass 0  IDiag  1:
 E= -1917.09138172139     Delta-E=       -0.016790243443 Rises=F Damp=F
 DIIS: error= 3.09D-03 at cycle   4 NSaved=   4.
 NSaved= 4 IEnMin= 4 EnMin= -1917.09138172139     IErMin= 4 ErrMin= 3.09D-03
 ErrMax= 3.09D-03  0.00D+00 EMaxC= 1.00D-01 BMatC= 1.08D-03 BMatP= 1.77D-02
 IDIUse=3 WtCom= 9.69D-01 WtEn= 3.09D-02
 Coeff-Com: -0.111D+00 0.243D+00 0.272D+00 0.595D+00
 Coeff-En:   0.000D+00 0.000D+00 0.338D-01 0.966D+00
 Coeff:     -0.108D+00 0.236D+00 0.265D+00 0.607D+00
 Gap=     0.222 Goal=   None    Shift=    0.000
 RMSDP=6.31D-04 MaxDP=1.92D-02 DE=-1.68D-02 OVMax= 8.00D-03

 Cycle   5  Pass 0  IDiag  1:
 E= -1917.09252856797     Delta-E=       -0.001146846574 Rises=F Damp=F
 DIIS: error= 1.60D-04 at cycle   5 NSaved=   5.
 NSaved= 5 IEnMin= 5 EnMin= -1917.09252856797     IErMin= 5 ErrMin= 1.60D-04
 ErrMax= 1.60D-04  0.00D+00 EMaxC= 1.00D-01 BMatC= 4.19D-06 BMatP= 1.08D-03
 IDIUse=3 WtCom= 9.98D-01 WtEn= 1.60D-03
 Coeff-Com: -0.910D-02 0.184D-01 0.350D-01 0.134D+00 0.822D+00
 Coeff-En:   0.000D+00 0.000D+00 0.000D+00 0.000D+00 0.100D+01
 Coeff:     -0.909D-02 0.183D-01 0.349D-01 0.134D+00 0.822D+00
 Gap=     0.222 Goal=   None    Shift=    0.000
 RMSDP=5.25D-05 MaxDP=1.66D-03 DE=-1.15D-03 OVMax= 4.94D-04

 Cycle   6  Pass 0  IDiag  1:
 E= -1917.09253299231     Delta-E=       -0.000004424348 Rises=F Damp=F
 DIIS: error= 3.01D-05 at cycle   6 NSaved=   6.
 NSaved= 6 IEnMin= 6 EnMin= -1917.09253299231     IErMin= 6 ErrMin= 3.01D-05
 ErrMax= 3.01D-05  0.00D+00 EMaxC= 1.00D-01 BMatC= 1.22D-07 BMatP= 4.19D-06
 IDIUse=1 WtCom= 1.00D+00 WtEn= 0.00D+00
 Coeff-Com: -0.748D-03 0.102D-02 0.627D-02 0.310D-01 0.259D+00 0.704D+00
 Coeff:     -0.748D-03 0.102D-02 0.627D-02 0.310D-01 0.259D+00 0.704D+00
 Gap=     0.222 Goal=   None    Shift=    0.000
 RMSDP=5.78D-06 MaxDP=1.16D-04 DE=-4.42D-06 OVMax= 2.43D-04

 Initial convergence to 1.0D-05 achieved.  Increase integral accuracy.
 Cycle   7  Pass 1  IDiag  1:
 E= -1917.09241844196     Delta-E=        0.000114550349 Rises=F Damp=F
 DIIS: error= 6.80D-05 at cycle   1 NSaved=   1.
 NSaved= 1 IEnMin= 1 EnMin= -1917.09241844196     IErMin= 1 ErrMin= 6.80D-05
 ErrMax= 6.80D-05  0.00D+00 EMaxC= 1.00D-01 BMatC= 2.86D-07 BMatP= 2.86D-07
 IDIUse=1 WtCom= 1.00D+00 WtEn= 0.00D+00
 Coeff-Com:  0.100D+01
 Coeff:      0.100D+01
 Gap=     0.222 Goal=   None    Shift=    0.000
 RMSDP=5.78D-06 MaxDP=1.16D-04 DE= 1.15D-04 OVMax= 4.08D-04

 Cycle   8  Pass 1  IDiag  1:
 E= -1917.09241838370     Delta-E=        0.000000058268 Rises=F Damp=F
 DIIS: error= 7.56D-05 at cycle   2 NSaved=   2.
 NSaved= 2 IEnMin= 1 EnMin= -1917.09241844196     IErMin= 1 ErrMin= 6.80D-05
 ErrMax= 7.56D-05  0.00D+00 EMaxC= 1.00D-01 BMatC= 3.41D-07 BMatP= 2.86D-07
 IDIUse=1 WtCom= 1.00D+00 WtEn= 0.00D+00
 Coeff-Com:  0.529D+00 0.471D+00
 Coeff:      0.529D+00 0.471D+00
 Gap=     0.222 Goal=   None    Shift=    0.000
 RMSDP=6.08D-06 MaxDP=1.24D-04 DE= 5.83D-08 OVMax= 4.09D-04

 Cycle   9  Pass 1  IDiag  1:
 E= -1917.09241864352     Delta-E=       -0.000000259820 Rises=F Damp=F
 DIIS: error= 3.61D-05 at cycle   3 NSaved=   3.
 NSaved= 3 IEnMin= 3 EnMin= -1917.09241864352     IErMin= 3 ErrMin= 3.61D-05
 ErrMax= 3.61D-05  0.00D+00 EMaxC= 1.00D-01 BMatC= 7.65D-08 BMatP= 2.86D-07
 IDIUse=1 WtCom= 1.00D+00 WtEn= 0.00D+00
 Coeff-Com:  0.153D-02 0.320D+00 0.678D+00
 Coeff:      0.153D-02 0.320D+00 0.678D+00
 Gap=     0.222 Goal=   None    Shift=    0.000
 RMSDP=2.07D-06 MaxDP=4.16D-05 DE=-2.60D-07 OVMax= 1.34D-04

 Cycle  10  Pass 1  IDiag  1:
 E= -1917.09241871791     Delta-E=       -0.000000074394 Rises=F Damp=F
 DIIS: error= 1.73D-06 at cycle   4 NSaved=   4.
 NSaved= 4 IEnMin= 4 EnMin= -1917.09241871791     IErMin= 4 ErrMin= 1.73D-06
 ErrMax= 1.73D-06  0.00D+00 EMaxC= 1.00D-01 BMatC= 7.19D-10 BMatP= 7.65D-08
 IDIUse=1 WtCom= 1.00D+00 WtEn= 0.00D+00
 Coeff-Com: -0.657D-02 0.136D+00 0.302D+00 0.569D+00
 Coeff:     -0.657D-02 0.136D+00 0.302D+00 0.569D+00
 Gap=     0.222 Goal=   None    Shift=    0.000
 RMSDP=5.61D-07 MaxDP=1.06D-05 DE=-7.44D-08 OVMax= 8.57D-06

 Cycle  11  Pass 1  IDiag  1:
 E= -1917.09241871861     Delta-E=       -0.000000000700 Rises=F Damp=F
 DIIS: error= 4.70D-07 at cycle   5 NSaved=   5.
 NSaved= 5 IEnMin= 5 EnMin= -1917.09241871861     IErMin= 5 ErrMin= 4.70D-07
 ErrMax= 4.70D-07  0.00D+00 EMaxC= 1.00D-01 BMatC= 4.03D-11 BMatP= 7.19D-10
 IDIUse=1 WtCom= 1.00D+00 WtEn= 0.00D+00
 Coeff-Com: -0.248D-02 0.357D-01 0.808D-01 0.244D+00 0.641D+00
 Coeff:     -0.248D-02 0.357D-01 0.808D-01 0.244D+00 0.641D+00
 Gap=     0.222 Goal=   None    Shift=    0.000
 RMSDP=1.25D-07 MaxDP=2.05D-06 DE=-7.00D-10 OVMax= 1.96D-06

 Cycle  12  Pass 1  IDiag  1:
 E= -1917.09241871866     Delta-E=       -0.000000000051 Rises=F Damp=F
 DIIS: error= 1.63D-07 at cycle   6 NSaved=   6.
 NSaved= 6 IEnMin= 6 EnMin= -1917.09241871866     IErMin= 6 ErrMin= 1.63D-07
 ErrMax= 1.63D-07  0.00D+00 EMaxC= 1.00D-01 BMatC= 3.72D-12 BMatP= 4.03D-11
 IDIUse=1 WtCom= 1.00D+00 WtEn= 0.00D+00
 Coeff-Com: -0.666D-03 0.739D-02 0.172D-01 0.796D-01 0.311D+00 0.585D+00
 Coeff:     -0.666D-03 0.739D-02 0.172D-01 0.796D-01 0.311D+00 0.585D+00
 Gap=     0.222 Goal=   None    Shift=    0.000
 RMSDP=4.57D-08 MaxDP=1.46D-06 DE=-5.07D-11 OVMax= 6.22D-07

 Cycle  13  Pass 1  IDiag  1:
 E= -1917.09241871865     Delta-E=        0.000000000015 Rises=F Damp=F
 DIIS: error= 8.59D-08 at cycle   7 NSaved=   7.
 NSaved= 7 IEnMin= 6 EnMin= -1917.09241871866     IErMin= 7 ErrMin= 8.59D-08
 ErrMax= 8.59D-08  0.00D+00 EMaxC= 1.00D-01 BMatC= 7.39D-13 BMatP= 3.72D-12
 IDIUse=1 WtCom= 1.00D+00 WtEn= 0.00D+00
 Coeff-Com: -0.221D-03 0.202D-02 0.481D-02 0.304D-01 0.141D+00 0.367D+00
 Coeff-Com:  0.455D+00
 Coeff:     -0.221D-03 0.202D-02 0.481D-02 0.304D-01 0.141D+00 0.367D+00
 Coeff:      0.455D+00
 Gap=     0.222 Goal=   None    Shift=    0.000
 RMSDP=1.04D-08 MaxDP=2.19D-07 DE= 1.50D-11 OVMax= 2.37D-07

 Cycle  14  Pass 1  IDiag  1:
 E= -1917.09241871864     Delta-E=        0.000000000011 Rises=F Damp=F
 DIIS: error= 9.10D-09 at cycle   8 NSaved=   8.
 NSaved= 8 IEnMin= 6 EnMin= -1917.09241871866     IErMin= 8 ErrMin= 9.10D-09
 ErrMax= 9.10D-09  0.00D+00 EMaxC= 1.00D-01 BMatC= 1.46D-14 BMatP= 7.39D-13
 IDIUse=1 WtCom= 1.00D+00 WtEn= 0.00D+00
 Coeff-Com: -0.430D-04 0.203D-03 0.498D-03 0.343D-02 0.192D-01 0.699D-01
 Coeff-Com:  0.162D+00 0.745D+00
 Coeff:     -0.430D-04 0.203D-03 0.498D-03 0.343D-02 0.192D-01 0.699D-01
 Coeff:      0.162D+00 0.745D+00
 Gap=     0.222 Goal=   None    Shift=    0.000
 RMSDP=2.11D-09 MaxDP=4.68D-08 DE= 1.07D-11 OVMax= 3.19D-08

 SCF Done:  E(RB3LYP) =  -1917.09241872     A.U. after   14 cycles
            NFock= 14  Conv=0.21D-08     -V/T= 2.0025
 KE= 1.912305108311D+03 PE=-5.531737727057D+03 EE= 1.212413981509D+03
 Leave Link  502 at Fri Jul  9 15:16:50 2021, MaxMem=  8388608000 cpu:       143.5
 (Enter /opt/Gaussian/g09-d01-bipbip-intel//g09/l601.exe)
 Copying SCF densities to generalized density rwf, IOpCl= 0 IROHF=0.

 **********************************************************************

            Population analysis using the SCF density.

 **********************************************************************

 Orbital symmetries:
       Occupied  (A) (A) (A) (A) (A) (A) (A) (A) (A) (A) (A) (A)
                 (A) (A) (A) (A) (A) (A) (A) (A) (A) (A) (A) (A)
                 (A) (A) (A) (A) (A) (A) (A) (A) (A) (A) (A) (A)
                 (A) (A) (A) (A)
       Virtual   (A) (A) (A) (A) (A) (A) (A) (A) (A) (A) (A) (A)
                 (A) (A) (A) (A) (A) (A) (A) (A) (A) (A) (A) (A)
                 (A) (A) (A) (A) (A) (A) (A) (A) (A) (A) (A) (A)
                 (A) (A) (A) (A) (A) (A) (A) (A) (A) (A) (A) (A)
                 (A) (A) (A) (A) (A) (A) (A) (A) (A) (A) (A) (A)
                 (A) (A) (A) (A) (A) (A) (A) (A) (A) (A) (A) (A)
                 (A) (A) (A) (A) (A) (A) (A) (A) (A) (A) (A) (A)
                 (A) (A)
 The electronic state is 1-A.
 Alpha  occ. eigenvalues -- -101.59573-101.59523-101.59497-101.59423 -10.32041
 Alpha  occ. eigenvalues --  -10.31956  -9.50519  -9.50446  -9.50435  -9.50348
 Alpha  occ. eigenvalues --   -7.26976  -7.26908  -7.26893  -7.26809  -7.25888
 Alpha  occ. eigenvalues --   -7.25840  -7.25814  -7.25804  -7.25768  -7.25758
 Alpha  occ. eigenvalues --   -7.25717  -7.25672  -0.96981  -0.91533  -0.87513
 Alpha  occ. eigenvalues --   -0.85247  -0.74678  -0.57594  -0.52022  -0.51880
 Alpha  occ. eigenvalues --   -0.45930  -0.44801  -0.39082  -0.37351  -0.36087
 Alpha  occ. eigenvalues --   -0.35811  -0.35360  -0.34671  -0.31913  -0.26725
 Alpha virt. eigenvalues --   -0.04550  -0.02847  -0.02209  -0.01078   0.08939
 Alpha virt. eigenvalues --    0.11984   0.16866   0.19893   0.20808   0.23290
 Alpha virt. eigenvalues --    0.24205   0.24487   0.28213   0.29224   0.29690
 Alpha virt. eigenvalues --    0.32778   0.33098   0.34155   0.35243   0.35875
 Alpha virt. eigenvalues --    0.36517   0.39207   0.39632   0.39791   0.45556
 Alpha virt. eigenvalues --    0.52367   0.63053   0.66386   0.68799   0.71769
 Alpha virt. eigenvalues --    0.73325   0.74600   0.75027   0.75145   0.76906
 Alpha virt. eigenvalues --    0.77172   0.77256   0.79037   0.80412   0.83133
 Alpha virt. eigenvalues --    0.83673   0.86179   0.87180   0.89014   0.96348
 Alpha virt. eigenvalues --    0.98013   1.03724   1.08699   1.15288   1.19281
 Alpha virt. eigenvalues --    1.20140   1.35589   1.36363   1.38424   1.44127
 Alpha virt. eigenvalues --    1.47268   1.49630   1.59250   1.62994   1.84549
 Alpha virt. eigenvalues --    1.91259   1.98503   2.02394   2.11080   2.23000
 Alpha virt. eigenvalues --    2.23510   2.25741   2.26979   2.27272   2.27655
 Alpha virt. eigenvalues --    2.30766   2.33599   2.34566   2.35399   2.43934
 Alpha virt. eigenvalues --    2.54051   2.57347   2.71144   2.80721   3.11280
 Alpha virt. eigenvalues --   21.19291  21.77618  24.44044  24.92763  24.96311
 Alpha virt. eigenvalues --   25.30315
     Molecular Orbital Coefficients:
                           1         2         3         4         5
                           O         O         O         O         O
     Eigenvalues --  -101.59573-101.59523-101.59497-101.59423 -10.32041
   1 1   Cl 1S         -0.00088   1.00017   0.01180   0.00274  -0.00001
   2        2S          0.00003  -0.03238  -0.00035  -0.00006  -0.00001
   3        3S          0.00002  -0.01052  -0.00005   0.00003   0.00002
   4        4S         -0.00002   0.00394  -0.00014  -0.00016   0.00009
   5        5S         -0.00016  -0.00360   0.00047   0.00050   0.00075
   6        6PX         0.00000  -0.00003   0.00000   0.00000   0.00002
   7        6PY         0.00000  -0.00006   0.00000   0.00000   0.00002
   8        6PZ         0.00000   0.00000   0.00000   0.00000   0.00000
   9        7PX         0.00000   0.00003   0.00001   0.00000  -0.00011
  10        7PY         0.00000   0.00007   0.00002   0.00002  -0.00015
  11        7PZ         0.00000   0.00000   0.00000   0.00000   0.00000
  12        8PX         0.00002  -0.00008  -0.00002   0.00000  -0.00009
  13        8PY         0.00002  -0.00017  -0.00002  -0.00006  -0.00018
  14        8PZ         0.00000   0.00000   0.00000   0.00000   0.00000
  15        9PX        -0.00004   0.00042  -0.00028  -0.00004   0.00013
  16        9PY        -0.00003   0.00078   0.00007  -0.00009  -0.00086
  17        9PZ         0.00000   0.00001  -0.00001  -0.00001  -0.00002
  18       10D 0       -0.00002  -0.00001   0.00000   0.00000  -0.00002
  19       10D+1        0.00000   0.00000   0.00000   0.00000   0.00000
  20       10D-1        0.00000   0.00000   0.00000   0.00000   0.00000
  21       10D+2        0.00001   0.00000   0.00003  -0.00001  -0.00010
  22       10D-2        0.00000   0.00000   0.00001   0.00001  -0.00003
  23 2   Cl 1S         -0.00206  -0.00276  -0.00078   1.00024  -0.00001
  24        2S          0.00010   0.00012   0.00003  -0.03238   0.00000
  25        3S          0.00009   0.00009   0.00002  -0.01052   0.00002
  26        4S         -0.00019  -0.00018  -0.00003   0.00393   0.00006
  27        5S          0.00052   0.00052  -0.00013  -0.00358   0.00070
  28        6PX         0.00000   0.00000   0.00000   0.00003  -0.00001
  29        6PY         0.00000   0.00000   0.00000  -0.00006   0.00002
  30        6PZ         0.00000   0.00000   0.00000   0.00000   0.00000
  31        7PX        -0.00001   0.00000   0.00000  -0.00003   0.00009
  32        7PY         0.00002   0.00002   0.00000   0.00007  -0.00014
  33        7PZ         0.00000   0.00000   0.00000   0.00000   0.00000
  34        8PX         0.00002   0.00000  -0.00002   0.00008   0.00008
  35        8PY        -0.00002  -0.00005   0.00001  -0.00017  -0.00014
  36        8PZ         0.00000   0.00000   0.00000   0.00000   0.00000
  37        9PX         0.00029   0.00004   0.00004  -0.00041  -0.00017
  38        9PY         0.00005  -0.00010  -0.00003   0.00078  -0.00080
  39        9PZ         0.00000   0.00001   0.00000   0.00000   0.00001
  40       10D 0        0.00000   0.00000  -0.00002  -0.00001  -0.00002
  41       10D+1        0.00000   0.00000   0.00000   0.00000   0.00000
  42       10D-1        0.00000   0.00000   0.00000   0.00000   0.00000
  43       10D+2        0.00003  -0.00001   0.00001   0.00000  -0.00009
  44       10D-2       -0.00001  -0.00001   0.00000   0.00000   0.00004
  45 3   Cl 1S          1.00024   0.00083   0.00370   0.00204  -0.00001
  46        2S         -0.03239  -0.00002  -0.00009  -0.00003   0.00000
  47        3S         -0.01052   0.00000   0.00003   0.00005   0.00003
  48        4S          0.00394  -0.00002  -0.00016  -0.00018   0.00005
  49        5S         -0.00361  -0.00017   0.00050   0.00051   0.00075
  50        6PX         0.00004   0.00000   0.00000   0.00000  -0.00001
  51        6PY         0.00006   0.00000   0.00000   0.00000  -0.00002
  52        6PZ         0.00000   0.00000   0.00000   0.00000   0.00000
  53        7PX        -0.00004   0.00000   0.00000  -0.00001   0.00010
  54        7PY        -0.00007   0.00000  -0.00002  -0.00002   0.00015
  55        7PZ         0.00000   0.00000   0.00000   0.00000   0.00000
  56        8PX         0.00008  -0.00002   0.00000   0.00002   0.00006
  57        8PY         0.00017  -0.00002   0.00006   0.00002   0.00012
  58        8PZ         0.00000   0.00000   0.00000   0.00000   0.00000
  59        9PX        -0.00042   0.00003   0.00004   0.00029  -0.00015
  60        9PY        -0.00078   0.00003   0.00009  -0.00006   0.00082
  61        9PZ         0.00001   0.00000   0.00000   0.00000  -0.00001
  62       10D 0       -0.00001  -0.00002   0.00000   0.00000   0.00000
  63       10D+1        0.00000   0.00000   0.00000   0.00000   0.00000
  64       10D-1        0.00000   0.00000   0.00000   0.00000   0.00000
  65       10D+2        0.00000   0.00001  -0.00001   0.00003  -0.00008
  66       10D-2        0.00000   0.00000   0.00001   0.00001  -0.00006
  67 4   C  1S          0.00000  -0.00001  -0.00001   0.00000   0.31214
  68        2S         -0.00001   0.00002   0.00002  -0.00001   0.40756
  69        3S          0.00008  -0.00004  -0.00004   0.00008   0.02308
  70        4S         -0.00001  -0.00009  -0.00009  -0.00002  -0.01404
  71        5S         -0.00029   0.00142   0.00135  -0.00029   0.00241
  72        6PX        -0.00006  -0.00003  -0.00004  -0.00006  -0.00048
  73        6PY        -0.00008  -0.00001   0.00001   0.00008  -0.00001
  74        6PZ         0.00000   0.00000   0.00000   0.00000   0.00000
  75        7PX         0.00022  -0.00001   0.00000   0.00021   0.00028
  76        7PY         0.00019   0.00000   0.00000  -0.00018  -0.00001
  77        7PZ         0.00000   0.00000   0.00000   0.00000   0.00000
  78        8PX        -0.00148   0.00064   0.00062  -0.00147   0.00194
  79        8PY        -0.00201  -0.00103   0.00097   0.00199   0.00003
  80        8PZ         0.00002  -0.00002  -0.00001   0.00000  -0.00001
  81        9D 0        0.00002   0.00000   0.00000   0.00002   0.00011
  82        9D+1        0.00000   0.00000   0.00000   0.00000   0.00000
  83        9D-1        0.00000   0.00000   0.00000   0.00000   0.00000
  84        9D+2        0.00005  -0.00002  -0.00002   0.00005  -0.00020
  85        9D-2       -0.00006   0.00000   0.00000   0.00006   0.00001
  86 5   C  1S         -0.00001   0.00000   0.00000  -0.00001   0.34697
  87        2S          0.00002  -0.00001  -0.00001   0.00002   0.45298
  88        3S         -0.00004   0.00008   0.00009  -0.00004   0.02579
  89        4S         -0.00009  -0.00001  -0.00003  -0.00009  -0.01608
  90        5S          0.00140  -0.00032  -0.00023   0.00140   0.00448
  91        6PX         0.00003   0.00006   0.00006   0.00003   0.00049
  92        6PY         0.00001   0.00008  -0.00008  -0.00001  -0.00001
  93        6PZ         0.00000   0.00000   0.00000   0.00000   0.00001
  94        7PX         0.00001  -0.00021  -0.00021   0.00001  -0.00032
  95        7PY         0.00000  -0.00018   0.00019   0.00000   0.00001
  96        7PZ         0.00000   0.00000   0.00000   0.00000  -0.00001
  97        8PX        -0.00064   0.00148   0.00145  -0.00063  -0.00248
  98        8PY         0.00101   0.00203  -0.00196  -0.00099  -0.00003
  99        8PZ         0.00000   0.00002   0.00000   0.00001   0.00002
 100        9D 0        0.00000   0.00002   0.00002   0.00000   0.00007
 101        9D+1        0.00000   0.00000   0.00000   0.00000   0.00000
 102        9D-1        0.00000   0.00000   0.00000   0.00000   0.00000
 103        9D+2       -0.00002   0.00005   0.00005  -0.00002  -0.00010
 104        9D-2        0.00000  -0.00006   0.00006   0.00000   0.00000
 105 6   Cl 1S         -0.00371  -0.01183   1.00017   0.00074  -0.00001
 106        2S          0.00015   0.00042  -0.03238  -0.00002  -0.00001
 107        3S          0.00010   0.00020  -0.01052   0.00001   0.00002
 108        4S         -0.00019  -0.00023   0.00393  -0.00003   0.00009
 109        5S          0.00053   0.00057  -0.00357  -0.00015   0.00073
 110        6PX         0.00000   0.00000  -0.00003   0.00000   0.00002
 111        6PY         0.00000   0.00000   0.00006   0.00000  -0.00002
 112        6PZ         0.00000   0.00000   0.00000   0.00000   0.00000
 113        7PX         0.00000   0.00001   0.00004   0.00000  -0.00010
 114        7PY        -0.00002  -0.00001  -0.00007   0.00000   0.00016
 115        7PZ         0.00000   0.00000   0.00000   0.00000   0.00000
 116        8PX         0.00000  -0.00002  -0.00008   0.00002  -0.00009
 117        8PY         0.00005   0.00002   0.00018  -0.00001   0.00018
 118        8PZ         0.00000   0.00000   0.00000   0.00000   0.00000
 119        9PX        -0.00004  -0.00029   0.00040  -0.00004   0.00014
 120        9PY         0.00010  -0.00005  -0.00078   0.00003   0.00086
 121        9PZ         0.00000  -0.00001   0.00000   0.00000  -0.00001
 122       10D 0        0.00000   0.00000  -0.00001  -0.00002  -0.00002
 123       10D+1        0.00000   0.00000   0.00000   0.00000   0.00000
 124       10D-1        0.00000   0.00000   0.00000   0.00000   0.00000
 125       10D+2       -0.00001   0.00003   0.00000   0.00001  -0.00009
 126       10D-2       -0.00001  -0.00001   0.00000   0.00000   0.00004
                           6         7         8         9        10
                           O         O         O         O         O
     Eigenvalues --   -10.31956  -9.50519  -9.50446  -9.50435  -9.50348
   1 1   Cl 1S          0.00000   0.00023  -0.29186  -0.02490  -0.00231
   2        2S          0.00004   0.00018  -0.21634  -0.01837  -0.00163
   3        3S          0.00009  -0.00064   0.82616   0.07060   0.00663
   4        4S         -0.00030  -0.00010   0.03331   0.00201  -0.00050
   5        5S         -0.00028  -0.00086  -0.01952   0.00080   0.00225
   6        6PX        -0.00003   0.00000  -0.00362  -0.00032  -0.00003
   7        6PY        -0.00002   0.00001  -0.00543  -0.00048  -0.00006
   8        6PZ         0.00000   0.00000  -0.00009  -0.00001   0.00000
   9        7PX         0.00012  -0.00001  -0.00040   0.00001  -0.00001
  10        7PY         0.00006  -0.00001  -0.00051   0.00004   0.00010
  11        7PZ         0.00000   0.00000  -0.00001   0.00000   0.00000
  12        8PX         0.00016   0.00009  -0.00031  -0.00009   0.00004
  13        8PY         0.00052   0.00008  -0.00072  -0.00015  -0.00026
  14        8PZ         0.00001   0.00000  -0.00002   0.00001   0.00001
  15        9PX         0.00025  -0.00019   0.00217  -0.00127  -0.00020
  16        9PY         0.00048  -0.00014   0.00381   0.00066  -0.00041
  17        9PZ         0.00001   0.00002   0.00007  -0.00003  -0.00004
  18       10D 0        0.00012  -0.00011  -0.00027  -0.00002   0.00000
  19       10D+1        0.00000   0.00000   0.00000   0.00000   0.00000
  20       10D-1        0.00000   0.00000   0.00001   0.00000   0.00000
  21       10D+2        0.00008   0.00003  -0.00015   0.00011  -0.00005
  22       10D-2       -0.00010   0.00002   0.00036   0.00007   0.00002
  23 2   Cl 1S          0.00000   0.00149   0.00221   0.00054  -0.29291
  24        2S         -0.00004   0.00119   0.00171   0.00042  -0.21711
  25        3S         -0.00009  -0.00411  -0.00615  -0.00151   0.82917
  26        4S          0.00030  -0.00100  -0.00100  -0.00025   0.03332
  27        5S          0.00036   0.00258   0.00262  -0.00048  -0.01925
  28        6PX        -0.00003  -0.00001  -0.00003  -0.00001   0.00359
  29        6PY         0.00002   0.00001   0.00003   0.00001  -0.00544
  30        6PZ         0.00000   0.00000   0.00000   0.00000   0.00003
  31        7PX         0.00013  -0.00004   0.00000   0.00001   0.00039
  32        7PY        -0.00007   0.00009   0.00011   0.00001  -0.00050
  33        7PZ         0.00000   0.00000   0.00000   0.00000   0.00000
  34        8PX         0.00017   0.00007  -0.00003  -0.00009   0.00032
  35        8PY        -0.00055  -0.00009  -0.00025   0.00004  -0.00075
  36        8PZ         0.00000   0.00000  -0.00001   0.00000   0.00000
  37        9PX         0.00024   0.00146   0.00019   0.00027  -0.00202
  38        9PY        -0.00056   0.00030  -0.00047  -0.00018   0.00385
  39        9PZ         0.00000  -0.00001   0.00004   0.00000  -0.00002
  40       10D 0       -0.00012   0.00001   0.00002  -0.00011  -0.00027
  41       10D+1        0.00000   0.00000   0.00000   0.00000   0.00000
  42       10D-1        0.00000   0.00000   0.00000   0.00000   0.00000
  43       10D+2       -0.00009   0.00012  -0.00005   0.00003  -0.00015
  44       10D-2       -0.00010  -0.00004  -0.00002  -0.00003  -0.00037
  45 3   Cl 1S          0.00000  -0.29291   0.00000  -0.00270  -0.00157
  46        2S         -0.00004  -0.21711   0.00001  -0.00192  -0.00108
  47        3S         -0.00008   0.82914   0.00000   0.00775   0.00455
  48        4S          0.00031   0.03340  -0.00002  -0.00047  -0.00066
  49        5S          0.00038  -0.01945  -0.00106   0.00218   0.00239
  50        6PX        -0.00003   0.00367   0.00000   0.00004   0.00003
  51        6PY        -0.00002   0.00549   0.00000   0.00007   0.00005
  52        6PZ         0.00000  -0.00007   0.00000   0.00000   0.00000
  53        7PX         0.00014   0.00040   0.00001   0.00000  -0.00004
  54        7PY         0.00009   0.00050   0.00002  -0.00010  -0.00008
  55        7PZ         0.00000  -0.00001   0.00000   0.00000   0.00000
  56        8PX         0.00016   0.00033  -0.00008  -0.00004   0.00008
  57        8PY         0.00052   0.00076  -0.00010   0.00026   0.00011
  58        8PZ         0.00000  -0.00001   0.00000   0.00000   0.00000
  59        9PX         0.00024  -0.00206   0.00017   0.00022   0.00146
  60        9PY         0.00058  -0.00384   0.00011   0.00041  -0.00036
  61        9PZ        -0.00001   0.00004   0.00001  -0.00001  -0.00001
  62       10D 0       -0.00011  -0.00028  -0.00011  -0.00001   0.00000
  63       10D+1        0.00000  -0.00001   0.00000   0.00000   0.00000
  64       10D-1        0.00000  -0.00001   0.00000   0.00000   0.00000
  65       10D+2       -0.00008  -0.00015   0.00003  -0.00005   0.00012
  66       10D-2        0.00009   0.00038   0.00002   0.00002   0.00004
  67 4   C  1S          0.34709  -0.00005   0.00000   0.00000  -0.00005
  68        2S          0.45277  -0.00009   0.00005   0.00006  -0.00010
  69        3S          0.02694   0.00055  -0.00018  -0.00021   0.00056
  70        4S         -0.02012  -0.00049  -0.00033  -0.00039  -0.00056
  71        5S          0.02100  -0.00091   0.00644   0.00709  -0.00085
  72        6PX        -0.00021  -0.00029  -0.00014  -0.00018  -0.00029
  73        6PY        -0.00001  -0.00038  -0.00004   0.00004   0.00039
  74        6PZ         0.00000   0.00000   0.00000   0.00000   0.00000
  75        7PX         0.00049   0.00113  -0.00003   0.00004   0.00112
  76        7PY        -0.00001   0.00114   0.00006  -0.00006  -0.00110
  77        7PZ         0.00000  -0.00001   0.00001   0.00000   0.00000
  78        8PX         0.00608  -0.00748   0.00286   0.00310  -0.00744
  79        8PY         0.00002  -0.01029  -0.00554   0.00443   0.01007
  80        8PZ        -0.00002   0.00010  -0.00008  -0.00004  -0.00003
  81        9D 0       -0.00039   0.00015   0.00001   0.00000   0.00014
  82        9D+1       -0.00001   0.00000   0.00000   0.00000   0.00000
  83        9D-1        0.00000   0.00000   0.00000   0.00000   0.00000
  84        9D+2        0.00089   0.00024  -0.00007  -0.00007   0.00023
  85        9D-2        0.00001  -0.00034   0.00000  -0.00001   0.00031
  86 5   C  1S         -0.31228   0.00000  -0.00004  -0.00005   0.00000
  87        2S         -0.40732   0.00006  -0.00009  -0.00010   0.00005
  88        3S         -0.02434  -0.00021   0.00050   0.00061  -0.00019
  89        4S          0.01852  -0.00037  -0.00044  -0.00064  -0.00039
  90        5S         -0.02065   0.00684  -0.00103  -0.00062   0.00688
  91        6PX        -0.00015   0.00016   0.00026   0.00031   0.00017
  92        6PY         0.00000   0.00004   0.00042  -0.00036  -0.00004
  93        6PZ        -0.00001   0.00000   0.00001   0.00000   0.00000
  94        7PX         0.00046   0.00003  -0.00102  -0.00117  -0.00002
  95        7PY         0.00000  -0.00007  -0.00119   0.00104   0.00006
  96        7PZ         0.00002   0.00000  -0.00002  -0.00001  -0.00001
  97        8PX         0.00582  -0.00307   0.00691   0.00783  -0.00296
  98        8PY         0.00000   0.00517   0.01108  -0.00918  -0.00491
  99        8PZ        -0.00003  -0.00002   0.00012   0.00000   0.00003
 100        9D 0        0.00040   0.00000   0.00013   0.00016   0.00001
 101        9D+1        0.00001   0.00000   0.00000   0.00000   0.00000
 102        9D-1        0.00000   0.00000   0.00000   0.00000   0.00000
 103        9D+2       -0.00090  -0.00008   0.00021   0.00026  -0.00007
 104        9D-2        0.00000   0.00000  -0.00035   0.00030  -0.00001
 105 6   Cl 1S          0.00000   0.00263   0.02484  -0.29186  -0.00035
 106        2S          0.00004   0.00203   0.01849  -0.21632  -0.00025
 107        3S          0.00008  -0.00734  -0.07019   0.82619   0.00101
 108        4S         -0.00030  -0.00107  -0.00366   0.03315  -0.00009
 109        5S         -0.00029   0.00262   0.00416  -0.01898  -0.00075
 110        6PX        -0.00003   0.00003   0.00029  -0.00356   0.00000
 111        6PY         0.00002  -0.00003  -0.00045   0.00549   0.00001
 112        6PZ         0.00000   0.00000   0.00000   0.00000   0.00000
 113        7PX         0.00013   0.00001   0.00008  -0.00038   0.00000
 114        7PY        -0.00006  -0.00011  -0.00012   0.00049   0.00001
 115        7PZ         0.00000   0.00000   0.00000   0.00000   0.00000
 116        8PX         0.00014   0.00003  -0.00005  -0.00033   0.00008
 117        8PY        -0.00052   0.00025   0.00003   0.00078  -0.00007
 118        8PZ         0.00000   0.00000   0.00001   0.00000   0.00000
 119        9PX         0.00026  -0.00021  -0.00162   0.00187  -0.00025
 120        9PY        -0.00048   0.00049   0.00001  -0.00387   0.00013
 121        9PZ         0.00000   0.00001  -0.00004   0.00001   0.00000
 122       10D 0        0.00011   0.00001   0.00003  -0.00028  -0.00011
 123       10D+1        0.00000   0.00000   0.00000   0.00000   0.00000
 124       10D-1        0.00000   0.00000   0.00000   0.00000   0.00000
 125       10D+2        0.00008  -0.00004   0.00013  -0.00014   0.00003
 126       10D-2        0.00010  -0.00002  -0.00001  -0.00038  -0.00003
                          11        12        13        14        15
                           O         O         O         O         O
     Eigenvalues --    -7.26976  -7.26908  -7.26893  -7.26809  -7.25888
   1 1   Cl 1S          0.00000  -0.00200   0.00000   0.00000   0.00000
   2        2S          0.00000  -0.00162   0.00002  -0.00001   0.00000
   3        3S         -0.00001   0.00590   0.00002  -0.00003   0.00000
   4        4S          0.00007  -0.00049  -0.00014   0.00014   0.00000
   5        5S         -0.00057   0.00119   0.00057  -0.00064   0.00000
   6        6PX        -0.00021   0.52816  -0.00193   0.00019   0.00000
   7        6PY        -0.00032   0.81086  -0.00298   0.00024   0.00000
   8        6PZ        -0.00001   0.01422  -0.00005   0.00001   0.00013
   9        7PX        -0.00004   0.03761  -0.00010   0.00002   0.00000
  10        7PY        -0.00005   0.05772  -0.00025  -0.00003   0.00000
  11        7PZ         0.00000   0.00101   0.00000   0.00000   0.00002
  12        8PX         0.00011  -0.00395  -0.00008   0.00001   0.00000
  13        8PY         0.00012  -0.00599   0.00009   0.00013   0.00000
  14        8PZ         0.00000  -0.00010   0.00000   0.00000  -0.00002
  15        9PX         0.00001   0.00112  -0.00029   0.00007  -0.00001
  16        9PY         0.00000   0.00152   0.00006   0.00007   0.00000
  17        9PZ         0.00001   0.00002  -0.00001   0.00001  -0.00001
  18       10D 0       -0.00001   0.00020   0.00003  -0.00001   0.00000
  19       10D+1        0.00000   0.00000   0.00000   0.00000  -0.00001
  20       10D-1        0.00000  -0.00001   0.00000   0.00000   0.00000
  21       10D+2        0.00001   0.00012   0.00010   0.00002   0.00000
  22       10D-2       -0.00002  -0.00029   0.00004  -0.00003   0.00000
  23 2   Cl 1S         -0.00001   0.00001   0.00000  -0.00199   0.00000
  24        2S          0.00001  -0.00001   0.00000  -0.00161   0.00000
  25        3S          0.00005  -0.00003  -0.00001   0.00587   0.00000
  26        4S         -0.00014   0.00015   0.00006  -0.00048   0.00000
  27        5S          0.00057  -0.00065  -0.00054   0.00117   0.00000
  28        6PX        -0.00018   0.00015   0.00016  -0.52439   0.00000
  29        6PY         0.00027  -0.00026  -0.00024   0.81342   0.00000
  30        6PZ         0.00000   0.00000   0.00000  -0.00400  -0.00002
  31        7PX        -0.00005   0.00000   0.00004  -0.03734   0.00000
  32        7PY        -0.00002  -0.00006  -0.00005   0.05790   0.00000
  33        7PZ         0.00000   0.00000   0.00000  -0.00028   0.00002
  34        8PX         0.00009  -0.00002  -0.00010   0.00392   0.00000
  35        8PY         0.00007   0.00014   0.00011  -0.00601   0.00000
  36        8PZ         0.00000   0.00000   0.00000   0.00003  -0.00004
  37        9PX         0.00029  -0.00007  -0.00001  -0.00112   0.00000
  38        9PY         0.00007   0.00007   0.00000   0.00153   0.00000
  39        9PZ         0.00000  -0.00001   0.00000  -0.00001   0.00015
  40       10D 0        0.00003  -0.00001  -0.00001   0.00020   0.00000
  41       10D+1        0.00000   0.00000   0.00000   0.00000   0.00001
  42       10D-1        0.00000   0.00000   0.00000   0.00000   0.00001
  43       10D+2        0.00010   0.00002   0.00001   0.00012   0.00000
  44       10D-2       -0.00004   0.00003   0.00002   0.00028   0.00000
  45 3   Cl 1S          0.00202   0.00000   0.00000   0.00001   0.00000
  46        2S          0.00163   0.00000   0.00001  -0.00001   0.00000
  47        3S         -0.00596   0.00000   0.00003  -0.00004   0.00000
  48        4S          0.00051  -0.00007  -0.00015   0.00014   0.00000
  49        5S         -0.00120   0.00057   0.00065  -0.00056   0.00000
  50        6PX         0.52849   0.00021   0.00023  -0.00017  -0.00827
  51        6PY         0.81070   0.00033   0.00031  -0.00028   0.01773
  52        6PZ        -0.01033   0.00000   0.00000   0.00000   0.96827
  53        7PX         0.03764  -0.00001   0.00003   0.00003  -0.00058
  54        7PY         0.05772  -0.00001  -0.00002  -0.00006   0.00123
  55        7PZ        -0.00074   0.00000   0.00000   0.00000   0.06735
  56        8PX        -0.00395   0.00010   0.00001  -0.00009   0.00006
  57        8PY        -0.00598   0.00012   0.00014   0.00007  -0.00012
  58        8PZ         0.00008   0.00000   0.00000   0.00000  -0.00630
  59        9PX         0.00112   0.00002   0.00007  -0.00029  -0.00002
  60        9PY         0.00152   0.00000   0.00007   0.00007   0.00004
  61        9PZ        -0.00002  -0.00001   0.00000   0.00000   0.00205
  62       10D 0       -0.00021   0.00001   0.00001  -0.00003  -0.00001
  63       10D+1        0.00000   0.00000   0.00000   0.00000   0.00022
  64       10D-1       -0.00001   0.00000   0.00000   0.00000   0.00032
  65       10D+2       -0.00013  -0.00001  -0.00002  -0.00010  -0.00001
  66       10D-2        0.00030   0.00002   0.00003  -0.00004   0.00000
  67 4   C  1S         -0.00004   0.00000   0.00000   0.00004   0.00000
  68        2S         -0.00012  -0.00001   0.00001   0.00012   0.00000
  69        3S          0.00006  -0.00004   0.00004  -0.00004   0.00000
  70        4S          0.00079   0.00031  -0.00033  -0.00078  -0.00001
  71        5S         -0.00249  -0.00224   0.00214   0.00248   0.00009
  72        6PX        -0.00016   0.00002  -0.00003   0.00015   0.00000
  73        6PY        -0.00022  -0.00004  -0.00004  -0.00021   0.00000
  74        6PZ         0.00000   0.00000   0.00000   0.00000  -0.00004
  75        7PX         0.00000   0.00017  -0.00016   0.00001  -0.00001
  76        7PY        -0.00039   0.00028   0.00026  -0.00040   0.00001
  77        7PZ         0.00000   0.00000   0.00000   0.00000   0.00031
  78        8PX        -0.00143  -0.00084   0.00080   0.00140   0.00004
  79        8PY        -0.00164   0.00136   0.00133  -0.00160  -0.00001
  80        8PZ         0.00002   0.00002  -0.00001   0.00000  -0.00081
  81        9D 0       -0.00012  -0.00003   0.00003   0.00013   0.00000
  82        9D+1        0.00000   0.00000   0.00000   0.00000  -0.00005
  83        9D-1        0.00000   0.00000   0.00000   0.00000  -0.00009
  84        9D+2       -0.00002   0.00004  -0.00004   0.00002   0.00000
  85        9D-2        0.00007   0.00005   0.00005   0.00008   0.00000
  86 5   C  1S          0.00000   0.00004  -0.00004   0.00000   0.00000
  87        2S          0.00001   0.00012  -0.00012  -0.00001   0.00000
  88        3S          0.00004  -0.00005   0.00006  -0.00004   0.00000
  89        4S         -0.00032  -0.00078   0.00078   0.00032   0.00001
  90        5S          0.00226   0.00248  -0.00239  -0.00223  -0.00009
  91        6PX         0.00002  -0.00015   0.00015  -0.00002   0.00000
  92        6PY        -0.00004  -0.00021  -0.00022  -0.00004   0.00000
  93        6PZ         0.00000   0.00000   0.00000   0.00000   0.00001
  94        7PX         0.00017  -0.00001   0.00000  -0.00016  -0.00001
  95        7PY         0.00027  -0.00040  -0.00039   0.00027   0.00000
  96        7PZ         0.00000   0.00000   0.00000   0.00000  -0.00006
  97        8PX        -0.00084  -0.00140   0.00135   0.00084   0.00005
  98        8PY         0.00136  -0.00163  -0.00160   0.00133   0.00000
  99        8PZ         0.00000  -0.00002   0.00000  -0.00001   0.00035
 100        9D 0        0.00003   0.00012  -0.00012  -0.00003   0.00000
 101        9D+1        0.00000   0.00000   0.00000   0.00000   0.00002
 102        9D-1        0.00000   0.00000   0.00000   0.00000   0.00002
 103        9D+2       -0.00004   0.00002  -0.00002   0.00004   0.00000
 104        9D-2       -0.00005  -0.00008  -0.00007  -0.00005   0.00000
 105 6   Cl 1S         -0.00001   0.00001   0.00201   0.00000   0.00000
 106        2S          0.00001   0.00000   0.00162   0.00000   0.00000
 107        3S          0.00003  -0.00006  -0.00592   0.00000   0.00000
 108        4S         -0.00015   0.00014   0.00049  -0.00006   0.00000
 109        5S          0.00066  -0.00058  -0.00116   0.00054   0.00000
 110        6PX         0.00019  -0.00191  -0.51713  -0.00016   0.00000
 111        6PY        -0.00033   0.00300   0.81805   0.00026   0.00000
 112        6PZ         0.00000   0.00000   0.00003   0.00000  -0.00033
 113        7PX         0.00000  -0.00017  -0.03683   0.00002   0.00000
 114        7PY        -0.00007   0.00018   0.05823  -0.00001   0.00000
 115        7PZ         0.00000   0.00000   0.00000   0.00000  -0.00005
 116        8PX        -0.00001   0.00011   0.00387  -0.00010   0.00000
 117        8PY         0.00014   0.00005  -0.00604   0.00011   0.00000
 118        8PZ         0.00000   0.00000   0.00000   0.00000   0.00008
 119        9PX        -0.00007   0.00028  -0.00110  -0.00001  -0.00001
 120        9PY         0.00007   0.00007   0.00154   0.00000  -0.00001
 121        9PZ         0.00000   0.00001   0.00000   0.00000  -0.00017
 122       10D 0        0.00001  -0.00003  -0.00020   0.00001   0.00000
 123       10D+1        0.00000   0.00000   0.00000   0.00000   0.00001
 124       10D-1        0.00000   0.00000   0.00000   0.00000   0.00000
 125       10D+2       -0.00002  -0.00010  -0.00013  -0.00001   0.00000
 126       10D-2       -0.00003   0.00004  -0.00029  -0.00002   0.00000
                          16        17        18        19        20
                           O         O         O         O         O
     Eigenvalues --    -7.25840  -7.25814  -7.25804  -7.25768  -7.25758
   1 1   Cl 1S          0.00000   0.00000   0.00000  -0.00003   0.00000
   2        2S          0.00000   0.00000   0.00000  -0.00002   0.00000
   3        3S          0.00000  -0.00001   0.00000   0.00008   0.00001
   4        4S          0.00000   0.00001   0.00000  -0.00007   0.00002
   5        5S         -0.00004  -0.00002   0.00002   0.00024  -0.00007
   6        6PX         0.00004   0.00736   0.00000   0.81151   0.00249
   7        6PY        -0.00003  -0.02177   0.00000  -0.52827  -0.00159
   8        6PZ         0.00001   0.96820   0.00020  -0.01805  -0.00005
   9        7PX         0.00001   0.00051   0.00000   0.05644   0.00015
  10        7PY         0.00000  -0.00152   0.00000  -0.03673  -0.00016
  11        7PZ         0.00000   0.06733   0.00003  -0.00125   0.00000
  12        8PX        -0.00001  -0.00005   0.00000  -0.00537   0.00006
  13        8PY         0.00002   0.00014   0.00000   0.00347   0.00015
  14        8PZ         0.00000  -0.00629  -0.00005   0.00012   0.00000
  15        9PX         0.00009   0.00002  -0.00001   0.00185   0.00002
  16        9PY        -0.00005  -0.00005   0.00000  -0.00125   0.00002
  17        9PZ         0.00000   0.00204   0.00015  -0.00004   0.00000
  18       10D 0       -0.00001  -0.00001   0.00000   0.00000   0.00004
  19       10D+1        0.00000  -0.00021  -0.00001   0.00000   0.00000
  20       10D-1        0.00000  -0.00032   0.00001   0.00001   0.00000
  21       10D+2        0.00001  -0.00001   0.00000  -0.00035   0.00006
  22       10D-2        0.00000   0.00000   0.00000  -0.00015  -0.00002
  23 2   Cl 1S          0.00000   0.00000   0.00000   0.00000   0.00000
  24        2S          0.00000   0.00000   0.00000   0.00000   0.00000
  25        3S         -0.00001   0.00000   0.00000   0.00001   0.00000
  26        4S         -0.00002  -0.00001   0.00000  -0.00005   0.00000
  27        5S          0.00006   0.00002   0.00000  -0.00006   0.00004
  28        6PX        -0.00014   0.00000   0.00000   0.00015   0.00003
  29        6PY        -0.00012   0.00000   0.00000   0.00006   0.00002
  30        6PZ         0.00000  -0.00029   0.00012   0.00001   0.00001
  31        7PX        -0.00003   0.00000   0.00000   0.00000   0.00001
  32        7PY         0.00004   0.00000   0.00000   0.00005   0.00000
  33        7PZ         0.00000  -0.00005   0.00002   0.00000   0.00000
  34        8PX         0.00008   0.00000   0.00000  -0.00004  -0.00001
  35        8PY        -0.00014   0.00000   0.00000  -0.00011  -0.00002
  36        8PZ         0.00000   0.00008  -0.00002   0.00000   0.00000
  37        9PX         0.00000   0.00001   0.00000   0.00026   0.00009
  38        9PY        -0.00002   0.00000   0.00000   0.00026   0.00005
  39        9PZ         0.00000  -0.00016  -0.00001   0.00000   0.00000
  40       10D 0       -0.00004   0.00000   0.00000  -0.00003   0.00001
  41       10D+1        0.00000  -0.00001   0.00001   0.00000   0.00000
  42       10D-1        0.00000   0.00000   0.00000   0.00000   0.00000
  43       10D+2       -0.00006   0.00000   0.00000   0.00003  -0.00001
  44       10D-2       -0.00002   0.00000   0.00000   0.00001   0.00000
  45 3   Cl 1S          0.00003   0.00000   0.00000   0.00000   0.00000
  46        2S          0.00002   0.00000   0.00000   0.00000   0.00000
  47        3S         -0.00009   0.00000   0.00000   0.00000   0.00001
  48        4S          0.00007   0.00000   0.00000   0.00000  -0.00004
  49        5S         -0.00024  -0.00001   0.00000   0.00005  -0.00007
  50        6PX         0.81129  -0.00001   0.00002  -0.00004  -0.00015
  51        6PY        -0.52866   0.00000  -0.00001   0.00003   0.00013
  52        6PZ         0.01661  -0.00014   0.00034   0.00000   0.00000
  53        7PX         0.05644   0.00000   0.00000   0.00000  -0.00002
  54        7PY        -0.03677   0.00000   0.00000   0.00000  -0.00003
  55        7PZ         0.00115   0.00000   0.00000   0.00000   0.00000
  56        8PX        -0.00538   0.00000   0.00000  -0.00001  -0.00003
  57        8PY         0.00348   0.00000   0.00000   0.00002   0.00012
  58        8PZ        -0.00011  -0.00002   0.00008   0.00000   0.00000
  59        9PX         0.00186   0.00000  -0.00001   0.00009   0.00026
  60        9PY        -0.00126   0.00000   0.00001  -0.00005  -0.00027
  61        9PZ         0.00004  -0.00001  -0.00016   0.00000   0.00000
  62       10D 0        0.00000   0.00000   0.00000   0.00001  -0.00003
  63       10D+1        0.00000   0.00001  -0.00001   0.00000   0.00000
  64       10D-1        0.00001   0.00000   0.00000   0.00000   0.00000
  65       10D+2        0.00036   0.00000   0.00000  -0.00001   0.00003
  66       10D-2        0.00015   0.00000   0.00000   0.00000   0.00000
  67 4   C  1S          0.00000   0.00000   0.00000   0.00000   0.00000
  68        2S          0.00000   0.00000   0.00000  -0.00001  -0.00001
  69        3S         -0.00004   0.00000   0.00000  -0.00004  -0.00003
  70        4S          0.00047   0.00001  -0.00002   0.00052   0.00051
  71        5S         -0.00325  -0.00005   0.00015  -0.00333  -0.00334
  72        6PX        -0.00006   0.00000   0.00000  -0.00001  -0.00001
  73        6PY         0.00003   0.00000   0.00000   0.00001  -0.00001
  74        6PZ         0.00000   0.00001   0.00001   0.00000   0.00000
  75        7PX         0.00065   0.00001  -0.00001   0.00043   0.00043
  76        7PY        -0.00020   0.00000   0.00000   0.00000   0.00000
  77        7PZ         0.00000  -0.00006  -0.00006   0.00000   0.00000
  78        8PX        -0.00203  -0.00003   0.00007  -0.00162  -0.00164
  79        8PY        -0.00004  -0.00003   0.00001   0.00030  -0.00031
  80        8PZ        -0.00001   0.00035   0.00034   0.00000   0.00001
  81        9D 0       -0.00002   0.00000   0.00000  -0.00003  -0.00003
  82        9D+1        0.00000  -0.00002  -0.00002   0.00000   0.00000
  83        9D-1        0.00000  -0.00002   0.00002   0.00000   0.00000
  84        9D+2       -0.00002   0.00000   0.00000   0.00006   0.00005
  85        9D-2       -0.00003   0.00000   0.00000   0.00005  -0.00005
  86 5   C  1S          0.00000   0.00000   0.00000   0.00000   0.00000
  87        2S          0.00001   0.00000   0.00000   0.00000   0.00000
  88        3S          0.00003   0.00000   0.00000   0.00004   0.00004
  89        4S         -0.00052   0.00001   0.00002  -0.00047  -0.00046
  90        5S          0.00334   0.00004  -0.00015   0.00324   0.00326
  91        6PX        -0.00001   0.00000   0.00000  -0.00006  -0.00006
  92        6PY         0.00001   0.00000   0.00000   0.00003  -0.00003
  93        6PZ         0.00000  -0.00005  -0.00004   0.00000   0.00000
  94        7PX         0.00043   0.00001  -0.00001   0.00065   0.00065
  95        7PY         0.00000  -0.00001   0.00000  -0.00020   0.00020
  96        7PZ         0.00000   0.00031   0.00031  -0.00001   0.00000
  97        8PX        -0.00163  -0.00002   0.00007  -0.00202  -0.00204
  98        8PY         0.00030   0.00005  -0.00002  -0.00005   0.00006
  99        8PZ         0.00001  -0.00081  -0.00081   0.00002  -0.00001
 100        9D 0        0.00003   0.00000   0.00000   0.00002   0.00002
 101        9D+1        0.00000   0.00005   0.00005   0.00000   0.00000
 102        9D-1        0.00000   0.00009  -0.00009   0.00000   0.00000
 103        9D+2       -0.00006   0.00000   0.00000   0.00002   0.00002
 104        9D-2       -0.00005   0.00000   0.00000   0.00003  -0.00003
 105 6   Cl 1S          0.00000   0.00000   0.00000   0.00000  -0.00003
 106        2S          0.00000   0.00000   0.00000   0.00000  -0.00002
 107        3S         -0.00001   0.00000   0.00000   0.00001   0.00009
 108        4S          0.00005  -0.00001   0.00000   0.00002  -0.00007
 109        5S          0.00006   0.00002  -0.00001  -0.00007   0.00025
 110        6PX         0.00018   0.00000  -0.01138  -0.00249   0.81854
 111        6PY         0.00008   0.00000  -0.00723  -0.00160   0.51744
 112        6PZ        -0.00002  -0.00020   0.96838  -0.00004   0.01348
 113        7PX         0.00001   0.00000  -0.00079  -0.00020   0.05694
 114        7PY         0.00005   0.00000  -0.00050  -0.00006   0.03599
 115        7PZ         0.00000   0.00000   0.06735   0.00000   0.00094
 116        8PX        -0.00003   0.00000   0.00008   0.00009  -0.00542
 117        8PY        -0.00012   0.00000   0.00005  -0.00013  -0.00341
 118        8PZ         0.00000  -0.00004  -0.00629   0.00000  -0.00009
 119        9PX         0.00026   0.00000  -0.00003   0.00000   0.00187
 120        9PY         0.00026   0.00000  -0.00002  -0.00002   0.00123
 121        9PZ        -0.00001   0.00015   0.00204  -0.00001   0.00003
 122       10D 0        0.00003   0.00000   0.00000   0.00004   0.00001
 123       10D+1        0.00000  -0.00001  -0.00021   0.00000   0.00000
 124       10D-1        0.00000  -0.00001   0.00032   0.00000   0.00000
 125       10D+2       -0.00003   0.00000   0.00000   0.00006  -0.00035
 126       10D-2       -0.00001   0.00000   0.00000   0.00002   0.00016
                          21        22        23        24        25
                           O         O         O         O         O
     Eigenvalues --    -7.25717  -7.25672  -0.96981  -0.91533  -0.87513
   1 1   Cl 1S          0.00000   0.00000   0.03023  -0.03914   0.04246
   2        2S          0.00000   0.00000   0.02678  -0.03476   0.03785
   3        3S          0.00000  -0.00001  -0.17102   0.22241  -0.24197
   4        4S          0.00001   0.00005   0.23356  -0.30787   0.33632
   5        5S         -0.00002   0.00007   0.14050  -0.18370   0.20729
   6        6PX        -0.00001  -0.00012   0.01752  -0.01236   0.01562
   7        6PY         0.00000   0.00011   0.02547  -0.02721   0.01430
   8        6PZ         0.00030   0.00000   0.00033  -0.00034   0.00026
   9        7PX         0.00000  -0.00001  -0.01364   0.00996  -0.01263
  10        7PY         0.00000  -0.00003  -0.02034   0.02226  -0.01170
  11        7PZ        -0.00001   0.00000  -0.00026   0.00028  -0.00021
  12        8PX         0.00000  -0.00003  -0.03137   0.02249  -0.02820
  13        8PY         0.00000   0.00011  -0.04392   0.04676  -0.02612
  14        8PZ         0.00008   0.00000  -0.00058   0.00058  -0.00046
  15        9PX         0.00001   0.00026  -0.00211  -0.00029  -0.00485
  16        9PY         0.00000  -0.00026  -0.00632   0.00611   0.00024
  17        9PZ        -0.00016   0.00000  -0.00004   0.00002   0.00000
  18       10D 0        0.00000   0.00003  -0.01012   0.00942  -0.00748
  19       10D+1        0.00001   0.00000   0.00021  -0.00019   0.00021
  20       10D-1        0.00000   0.00000   0.00030  -0.00034   0.00025
  21       10D+2        0.00000  -0.00003  -0.00562   0.00911  -0.00142
  22       10D-2        0.00000   0.00000   0.01447  -0.01351   0.01236
  23 2   Cl 1S          0.00000   0.00003   0.03026   0.03713   0.04387
  24        2S          0.00000   0.00002   0.02681   0.03298   0.03910
  25        3S          0.00000  -0.00008  -0.17120  -0.21097  -0.24999
  26        4S          0.00000   0.00007   0.23368   0.29195   0.34740
  27        5S          0.00000  -0.00024   0.14079   0.17427   0.21406
  28        6PX         0.00987   0.81393  -0.01738  -0.01129  -0.01589
  29        6PY         0.01113   0.52466   0.02571   0.02628   0.01525
  30        6PZ         0.96836  -0.01432  -0.00011  -0.00011  -0.00006
  31        7PX         0.00069   0.05661   0.01351   0.00909   0.01283
  32        7PY         0.00077   0.03648  -0.02050  -0.02147  -0.01247
  33        7PZ         0.06734  -0.00100   0.00009   0.00010   0.00004
  34        8PX        -0.00007  -0.00539   0.03117   0.02059   0.02874
  35        8PY        -0.00007  -0.00345  -0.04440  -0.04519  -0.02779
  36        8PZ        -0.00629   0.00009   0.00020   0.00018   0.00012
  37        9PX         0.00002   0.00185   0.00204  -0.00053   0.00487
  38        9PY         0.00003   0.00124  -0.00642  -0.00601   0.00005
  39        9PZ         0.00204  -0.00003   0.00002   0.00005  -0.00003
  40       10D 0        0.00000   0.00000  -0.01018  -0.00898  -0.00778
  41       10D+1        0.00021   0.00000   0.00007   0.00005   0.00007
  42       10D-1       -0.00032   0.00001  -0.00010  -0.00011  -0.00006
  43       10D+2        0.00001   0.00035  -0.00586  -0.00912  -0.00185
  44       10D-2        0.00000  -0.00016  -0.01442  -0.01266  -0.01275
  45 3   Cl 1S          0.00000   0.00000   0.03209   0.04036  -0.04116
  46        2S          0.00000   0.00000   0.02843   0.03585  -0.03669
  47        3S          0.00000  -0.00001  -0.18156  -0.22936   0.23460
  48        4S          0.00000  -0.00002   0.24809   0.31760  -0.32619
  49        5S          0.00000   0.00007   0.14873   0.18931  -0.20079
  50        6PX         0.00000   0.00017  -0.01864  -0.01273   0.01535
  51        6PY         0.00000  -0.00009  -0.02693  -0.02800   0.01356
  52        6PZ         0.00001   0.00000   0.00029   0.00027  -0.00019
  53        7PX         0.00000  -0.00001   0.01458   0.01032  -0.01245
  54        7PY         0.00000  -0.00005   0.02160   0.02299  -0.01115
  55        7PZ         0.00002   0.00000  -0.00023  -0.00022   0.00015
  56        8PX         0.00000   0.00008   0.03318   0.02297  -0.02759
  57        8PY         0.00000   0.00014   0.04615   0.04788  -0.02466
  58        8PZ        -0.00004   0.00000  -0.00049  -0.00047   0.00035
  59        9PX         0.00000   0.00001   0.00228  -0.00025  -0.00483
  60        9PY         0.00000   0.00002   0.00649   0.00614   0.00044
  61        9PZ         0.00015   0.00000  -0.00009  -0.00003  -0.00001
  62       10D 0        0.00000  -0.00004  -0.01068  -0.00964   0.00721
  63       10D+1        0.00001   0.00000  -0.00018  -0.00015   0.00017
  64       10D-1       -0.00001   0.00000  -0.00026  -0.00027   0.00017
  65       10D+2        0.00000  -0.00006  -0.00585  -0.00935   0.00117
  66       10D-2        0.00000   0.00002   0.01530   0.01391  -0.01200
  67 4   C  1S          0.00000   0.00000  -0.05502  -0.03166  -0.00122
  68        2S          0.00000   0.00000  -0.11662  -0.06748  -0.00260
  69        3S          0.00000  -0.00004   0.19098   0.11171   0.00413
  70        4S          0.00001   0.00046   0.17978   0.10724   0.00498
  71        5S         -0.00010  -0.00319  -0.00548   0.00693  -0.00079
  72        6PX         0.00000  -0.00006   0.01789  -0.06662  -0.00031
  73        6PY         0.00000  -0.00003  -0.00266  -0.00384   0.09471
  74        6PZ        -0.00005   0.00000   0.00006   0.00022  -0.00048
  75        7PX         0.00001   0.00065  -0.00289  -0.06115  -0.00110
  76        7PY         0.00000   0.00020  -0.00158  -0.00234   0.06790
  77        7PZ         0.00031  -0.00001   0.00006   0.00025  -0.00036
  78        8PX        -0.00005  -0.00199   0.01281   0.01036  -0.00024
  79        8PY        -0.00001   0.00004   0.00019   0.00056  -0.00241
  80        8PZ        -0.00080   0.00002   0.00008  -0.00016   0.00014
  81        9D 0        0.00000  -0.00002  -0.01310  -0.00783  -0.00029
  82        9D+1       -0.00005   0.00000  -0.00008  -0.00006   0.00009
  83        9D-1        0.00009   0.00000  -0.00013  -0.00015   0.00005
  84        9D+2        0.00000  -0.00002   0.00098  -0.00706  -0.00013
  85        9D-2        0.00000   0.00003   0.00032   0.00061  -0.00816
  86 5   C  1S          0.00000   0.00000  -0.05452   0.03250  -0.00029
  87        2S          0.00000   0.00001  -0.11554   0.06925  -0.00062
  88        3S          0.00000   0.00003   0.18915  -0.11460   0.00099
  89        4S         -0.00001  -0.00052   0.17843  -0.11005   0.00114
  90        5S          0.00010   0.00328  -0.00678  -0.00701   0.00104
  91        6PX         0.00000  -0.00001  -0.01904  -0.06542  -0.00139
  92        6PY         0.00000  -0.00001  -0.00177   0.00027   0.09475
  93        6PZ         0.00001   0.00000   0.00070  -0.00049   0.00048
  94        7PX         0.00001   0.00043   0.00182  -0.06064  -0.00081
  95        7PY         0.00000   0.00000  -0.00114   0.00009   0.06804
  96        7PZ        -0.00006   0.00000   0.00054  -0.00039   0.00036
  97        8PX        -0.00005  -0.00161  -0.01197   0.01049  -0.00050
  98        8PY         0.00002  -0.00031   0.00011  -0.00043  -0.00260
  99        8PZ         0.00034   0.00000  -0.00021   0.00016  -0.00014
 100        9D 0        0.00000   0.00003  -0.01298   0.00801  -0.00005
 101        9D+1        0.00002   0.00000   0.00002  -0.00013   0.00009
 102        9D-1       -0.00002   0.00000   0.00012  -0.00014   0.00017
 103        9D+2        0.00000  -0.00006   0.00100   0.00710   0.00033
 104        9D-2        0.00000   0.00005   0.00005   0.00012   0.00814
 105 6   Cl 1S          0.00000   0.00000   0.03115  -0.03918  -0.04282
 106        2S          0.00000   0.00000   0.02759  -0.03479  -0.03816
 107        3S          0.00000   0.00000  -0.17621   0.22262   0.24402
 108        4S          0.00000   0.00000   0.24064  -0.30817  -0.33920
 109        5S          0.00001  -0.00005   0.14458  -0.18398  -0.20892
 110        6PX        -0.00001  -0.00003   0.01793  -0.01196  -0.01549
 111        6PY         0.00000  -0.00002  -0.02632   0.02756   0.01470
 112        6PZ        -0.00012   0.00000  -0.00005   0.00004  -0.00001
 113        7PX         0.00000   0.00000  -0.01397   0.00965   0.01254
 114        7PY         0.00000   0.00000   0.02105  -0.02258  -0.01207
 115        7PZ         0.00000   0.00000   0.00004  -0.00003   0.00001
 116        8PX         0.00000  -0.00001  -0.03206   0.02176   0.02794
 117        8PY         0.00000  -0.00002   0.04526  -0.04729  -0.02670
 118        8PZ        -0.00002   0.00000   0.00009  -0.00006  -0.00001
 119        9PX         0.00000   0.00009  -0.00224  -0.00043   0.00487
 120        9PY         0.00000   0.00005   0.00637  -0.00618   0.00021
 121        9PZ        -0.00001   0.00000   0.00007  -0.00006   0.00003
 122       10D 0        0.00000  -0.00001  -0.01043   0.00942   0.00754
 123       10D+1       -0.00001   0.00000  -0.00003   0.00001   0.00002
 124       10D-1        0.00000   0.00000   0.00004  -0.00004   0.00001
 125       10D+2        0.00000   0.00001  -0.00595   0.00957   0.00182
 126       10D-2        0.00000   0.00000  -0.01478   0.01333   0.01236
                          26        27        28        29        30
                           O         O         O         O         O
     Eigenvalues --    -0.85247  -0.74678  -0.57594  -0.52022  -0.51880
   1 1   Cl 1S         -0.04546   0.02964   0.02280  -0.00995  -0.01744
   2        2S         -0.04060   0.02670   0.02095  -0.00936  -0.01623
   3        3S          0.25955  -0.17052  -0.13281   0.05804   0.10195
   4        4S         -0.36305   0.24160   0.18997  -0.07876  -0.14360
   5        5S         -0.22659   0.15807   0.15548  -0.09059  -0.14266
   6        6PX        -0.01000  -0.01982  -0.04060  -0.00512   0.08116
   7        6PY        -0.01311  -0.01112  -0.08605   0.08827   0.08814
   8        6PZ        -0.00020  -0.00015  -0.00121   0.00097   0.00167
   9        7PX         0.00858   0.01677   0.03714   0.00321  -0.07405
  10        7PY         0.01106   0.00990   0.07778  -0.08087  -0.08198
  11        7PZ         0.00017   0.00014   0.00110  -0.00087  -0.00152
  12        8PX         0.01731   0.03428   0.06863   0.01565  -0.14383
  13        8PY         0.02384   0.01706   0.14941  -0.15545  -0.14931
  14        8PZ         0.00033   0.00023   0.00209  -0.00175  -0.00295
  15        9PX         0.00050   0.00743   0.02869   0.00630  -0.06211
  16        9PY         0.00021   0.01130   0.05813  -0.06381  -0.06681
  17        9PZ         0.00006   0.00015   0.00083  -0.00050  -0.00114
  18       10D 0        0.00553   0.00225   0.01265  -0.00782  -0.01425
  19       10D+1       -0.00016  -0.00007  -0.00024   0.00002   0.00042
  20       10D-1       -0.00022   0.00002  -0.00048   0.00044   0.00050
  21       10D+2        0.00389  -0.00493   0.01421  -0.02372  -0.00127
  22       10D-2       -0.01081  -0.00716  -0.01718   0.00506   0.02326
  23 2   Cl 1S          0.04566   0.02991  -0.02260  -0.00947  -0.01775
  24        2S          0.04078   0.02695  -0.02076  -0.00892  -0.01651
  25        3S         -0.26066  -0.17208   0.13162   0.05525   0.10376
  26        4S          0.36444   0.24375  -0.18830  -0.07466  -0.14615
  27        5S          0.22775   0.15949  -0.15356  -0.08805  -0.14512
  28        6PX        -0.01021   0.01974  -0.03905   0.00740  -0.08071
  29        6PY         0.01335  -0.01114   0.08530   0.08495   0.08983
  30        6PZ        -0.00002  -0.00002  -0.00041  -0.00057  -0.00049
  31        7PX         0.00872  -0.01668   0.03574  -0.00526   0.07362
  32        7PY        -0.01124   0.00990  -0.07703  -0.07782  -0.08350
  33        7PZ         0.00002   0.00002   0.00037   0.00050   0.00044
  34        8PX         0.01773  -0.03418   0.06592  -0.01978   0.14297
  35        8PY        -0.02432   0.01711  -0.14826  -0.14942  -0.15225
  36        8PZ         0.00003   0.00005   0.00068   0.00106   0.00087
  37        9PX         0.00059  -0.00738   0.02769  -0.00812   0.06192
  38        9PY        -0.00036   0.01130  -0.05766  -0.06120  -0.06806
  39        9PZ        -0.00001   0.00002   0.00039   0.00036   0.00028
  40       10D 0       -0.00562   0.00225  -0.01249  -0.00739  -0.01440
  41       10D+1        0.00003   0.00000   0.00009   0.00006   0.00011
  42       10D-1       -0.00004  -0.00004  -0.00016  -0.00024  -0.00015
  43       10D+2       -0.00397  -0.00488  -0.01450  -0.02343  -0.00179
  44       10D-2       -0.01094   0.00721  -0.01672  -0.00409  -0.02332
  45 3   Cl 1S         -0.04399   0.02971  -0.02331  -0.01553   0.01269
  46        2S         -0.03928   0.02677  -0.02142  -0.01455   0.01176
  47        3S          0.25118  -0.17096   0.13580   0.09068  -0.07421
  48        4S         -0.35145   0.24222  -0.19420  -0.12481   0.10565
  49        5S         -0.21927   0.15874  -0.15955  -0.13639   0.10069
  50        6PX         0.00988   0.02022  -0.04184  -0.02380   0.07912
  51        6PY         0.01245   0.01125  -0.08869  -0.11525   0.04991
  52        6PZ        -0.00013  -0.00018   0.00091   0.00092  -0.00101
  53        7PX        -0.00852  -0.01712   0.03834   0.02316  -0.07169
  54        7PY        -0.01057  -0.01002   0.08027   0.10613  -0.04695
  55        7PZ         0.00011   0.00016  -0.00082  -0.00084   0.00092
  56        8PX        -0.01692  -0.03489   0.07054   0.03572  -0.14257
  57        8PY        -0.02254  -0.01717   0.15368   0.20053  -0.08204
  58        8PZ         0.00022   0.00029  -0.00156  -0.00161   0.00178
  59        9PX        -0.00058  -0.00747   0.02950   0.01583  -0.06130
  60        9PY        -0.00002  -0.01137   0.05972   0.08429  -0.03900
  61        9PZ         0.00003   0.00016  -0.00065  -0.00057   0.00076
  62       10D 0        0.00528   0.00228  -0.01302  -0.01250   0.01058
  63       10D+1        0.00011   0.00009  -0.00018  -0.00007   0.00033
  64       10D-1        0.00015   0.00002  -0.00037  -0.00039   0.00025
  65       10D+2        0.00360  -0.00509  -0.01462  -0.02299  -0.00779
  66       10D-2       -0.01054  -0.00731   0.01768   0.01317  -0.02014
  67 4   C  1S         -0.00078   0.05425  -0.04564  -0.00698  -0.00183
  68        2S         -0.00166   0.11549  -0.09815  -0.01491  -0.00391
  69        3S          0.00254  -0.19609   0.16623   0.01426   0.00443
  70        4S          0.00314  -0.18447   0.21934   0.11711   0.02502
  71        5S         -0.00016  -0.00362   0.01747  -0.02873  -0.00664
  72        6PX         0.00068  -0.17326  -0.09705  -0.22688  -0.04270
  73        6PY         0.07280  -0.00027  -0.00218  -0.03755   0.19063
  74        6PZ        -0.00071   0.00076   0.00024   0.00139  -0.00022
  75        7PX        -0.00033  -0.09349  -0.10822  -0.17449  -0.03400
  76        7PY         0.06073   0.00018  -0.00147  -0.03319   0.17282
  77        7PZ        -0.00049   0.00043   0.00035   0.00108  -0.00026
  78        8PX         0.00000  -0.03124   0.02026  -0.04025  -0.00879
  79        8PY        -0.01695   0.00016   0.00015   0.00041   0.00885
  80        8PZ         0.00000  -0.00004  -0.00030   0.00012   0.00041
  81        9D 0       -0.00020   0.00642  -0.00475  -0.00271  -0.00048
  82        9D+1        0.00006   0.00011  -0.00004   0.00003   0.00005
  83        9D-1        0.00005  -0.00001  -0.00008  -0.00007   0.00000
  84        9D+2       -0.00005  -0.01151  -0.00534  -0.00362  -0.00049
  85        9D-2       -0.01468  -0.00002   0.00025   0.00022   0.00111
  86 5   C  1S         -0.00005   0.05425   0.04559  -0.00753  -0.00136
  87        2S         -0.00009   0.11550   0.09802  -0.01607  -0.00289
  88        3S          0.00021  -0.19612  -0.16603   0.01613   0.00277
  89        4S         -0.00020  -0.18439  -0.21866   0.12023   0.02245
  90        5S          0.00029  -0.00257  -0.01808  -0.02783  -0.00209
  91        6PX        -0.00233   0.17318  -0.09562   0.22786   0.04144
  92        6PY        -0.07246  -0.00045  -0.00017  -0.03486   0.19085
  93        6PZ        -0.00070  -0.00036  -0.00031   0.00020   0.00051
  94        7PX        -0.00183   0.09336  -0.10712   0.17547   0.03200
  95        7PY        -0.06060  -0.00027  -0.00042  -0.03157   0.17291
  96        7PZ        -0.00050  -0.00024  -0.00032   0.00040   0.00053
  97        8PX        -0.00022   0.03073   0.02000   0.04019   0.00669
[...]
 116        8PX         0.00000   0.00000   0.00241  -0.00010   0.00000
 117        8PY         0.00000   0.00000  -0.00004   0.00309   0.00000
 118        8PZ         0.00084   0.00157   0.00000   0.00000   0.00000
 119        9PX         0.00000   0.00000   0.00100   0.00007   0.00000
 120        9PY         0.00000   0.00000   0.00011   0.00040   0.00000
 121        9PZ         0.00066   0.00104   0.00000   0.00000   0.00000
 122       10D 0        0.00000   0.00000   0.00002   0.00006   0.00000
 123       10D+1       -0.00001   0.00003   0.00000   0.00000   0.00000
 124       10D-1       -0.00002   0.00005   0.00000   0.00000   0.00000
 125       10D+2        0.00000   0.00000  -0.00001   0.00009   0.00000
 126       10D-2        0.00000   0.00000   0.00013   0.00020   0.00000
                         106       107       108       109       110
 106        2S          0.10954
 107        3S          0.37935   1.91108
 108        4S         -0.03614  -0.41688   1.04438
 109        5S         -0.01492  -0.17096   0.56378   0.46267
 110        6PX         0.00000   0.00000   0.00000   0.00000   2.02417
 111        6PY         0.00000   0.00000   0.00000   0.00000   0.00000
 112        6PZ         0.00000   0.00000   0.00000   0.00000   0.00000
 113        7PX         0.00000   0.00000   0.00000   0.00000  -0.00394
 114        7PY         0.00000   0.00000   0.00000   0.00000   0.00000
 115        7PZ         0.00000   0.00000   0.00000   0.00000   0.00000
 116        8PX         0.00000   0.00000   0.00000   0.00000  -0.05445
 117        8PY         0.00000   0.00000   0.00000   0.00000   0.00000
 118        8PZ         0.00000   0.00000   0.00000   0.00000   0.00000
 119        9PX         0.00000   0.00000   0.00000   0.00000  -0.00892
 120        9PY         0.00000   0.00000   0.00000   0.00000   0.00000
 121        9PZ         0.00000   0.00000   0.00000   0.00000   0.00000
 122       10D 0        0.00000   0.00000   0.00000   0.00000   0.00000
 123       10D+1        0.00000   0.00000   0.00000   0.00000   0.00000
 124       10D-1        0.00000   0.00000   0.00000   0.00000   0.00000
 125       10D+2        0.00000   0.00000   0.00000   0.00000   0.00000
 126       10D-2        0.00000   0.00000   0.00000   0.00000   0.00000
                         111       112       113       114       115
 111        6PY         1.99890
 112        6PZ         0.00000   2.03899
 113        7PX         0.00000   0.00000   0.14062
 114        7PY         0.00754   0.00000   0.00000   0.11756
 115        7PZ         0.00000  -0.01098   0.00000   0.00000   0.15505
 116        8PX         0.00000   0.00000   0.19333   0.00000   0.00000
 117        8PY        -0.04497   0.00000   0.00000   0.15632   0.00000
 118        8PZ         0.00000  -0.05964   0.00000   0.00000   0.21469
 119        9PX         0.00000   0.00000   0.04799   0.00000   0.00000
 120        9PY        -0.00646   0.00000   0.00000   0.03480   0.00000
 121        9PZ         0.00000  -0.01118   0.00000   0.00000   0.06023
 122       10D 0        0.00000   0.00000   0.00000   0.00000   0.00000
 123       10D+1        0.00000   0.00000   0.00000   0.00000   0.00000
 124       10D-1        0.00000   0.00000   0.00000   0.00000   0.00000
 125       10D+2        0.00000   0.00000   0.00000   0.00000   0.00000
 126       10D-2        0.00000   0.00000   0.00000   0.00000   0.00000
                         116       117       118       119       120
 116        8PX         0.51987
 117        8PY         0.00000   0.41405
 118        8PZ         0.00000   0.00000   0.57654
 119        9PX         0.21384   0.00000   0.00000   0.18065
 120        9PY         0.00000   0.15304   0.00000   0.00000   0.11957
 121        9PZ         0.00000   0.00000   0.26677   0.00000   0.00000
 122       10D 0        0.00000   0.00000   0.00000   0.00000   0.00000
 123       10D+1        0.00000   0.00000   0.00000   0.00000   0.00000
 124       10D-1        0.00000   0.00000   0.00000   0.00000   0.00000
 125       10D+2        0.00000   0.00000   0.00000   0.00000   0.00000
 126       10D-2        0.00000   0.00000   0.00000   0.00000   0.00000
                         121       122       123       124       125
 121        9PZ         0.25759
 122       10D 0        0.00000   0.00171
 123       10D+1        0.00000   0.00000   0.00110
 124       10D-1        0.00000   0.00000   0.00000   0.00227
 125       10D+2        0.00000   0.00000   0.00000   0.00000   0.00230
 126       10D-2        0.00000   0.00000   0.00000   0.00000   0.00000
                         126
 126       10D-2        0.00480
     Gross orbital populations:
                           1
   1 1   Cl 1S          2.01319
   2        2S          0.43255
   3        3S          1.52292
   4        4S          1.16314
   5        5S          0.79892
   6        6PX         1.95495
   7        6PY         1.95127
   8        6PZ         1.95711
   9        7PX         0.38967
  10        7PY         0.33975
  11        7PZ         0.41916
  12        8PX         0.92865
  13        8PY         0.78862
  14        8PZ         1.00258
  15        9PX         0.43459
  16        9PY         0.30926
  17        9PZ         0.53686
  18       10D 0        0.00587
  19       10D+1        0.00320
  20       10D-1        0.00666
  21       10D+2        0.00738
  22       10D-2        0.01581
  23 2   Cl 1S          2.01319
  24        2S          0.43255
  25        3S          1.52292
  26        4S          1.16315
  27        5S          0.79903
  28        6PX         1.95495
  29        6PY         1.95127
  30        6PZ         1.95711
  31        7PX         0.38957
  32        7PY         0.33975
  33        7PZ         0.41917
  34        8PX         0.92842
  35        8PY         0.78878
  36        8PZ         1.00258
  37        9PX         0.43464
  38        9PY         0.30962
  39        9PZ         0.53706
  40       10D 0        0.00586
  41       10D+1        0.00319
  42       10D-1        0.00663
  43       10D+2        0.00735
  44       10D-2        0.01579
  45 3   Cl 1S          2.01319
  46        2S          0.43255
  47        3S          1.52292
  48        4S          1.16314
  49        5S          0.79897
  50        6PX         1.95496
  51        6PY         1.95126
  52        6PZ         1.95711
  53        7PX         0.38982
  54        7PY         0.33958
  55        7PZ         0.41916
  56        8PX         0.92901
  57        8PY         0.78824
  58        8PZ         1.00258
  59        9PX         0.43493
  60        9PY         0.30900
  61        9PZ         0.53693
  62       10D 0        0.00587
  63       10D+1        0.00319
  64       10D-1        0.00666
  65       10D+2        0.00740
  66       10D-2        0.01578
  67 4   C  1S          0.85397
  68        2S          1.11836
  69        3S          0.54809
  70        4S          0.61493
  71        5S         -0.03252
  72        6PX         0.46515
  73        6PY         0.35091
  74        6PZ         0.43676
  75        7PX         0.41274
  76        7PY         0.41134
  77        7PZ         0.52132
  78        8PX         0.09651
  79        8PY         0.00736
  80        8PZ         0.17242
  81        9D 0        0.00423
  82        9D+1        0.01120
  83        9D-1        0.00696
  84        9D+2        0.01771
  85        9D-2        0.01755
  86 5   C  1S          0.85397
  87        2S          1.11836
  88        3S          0.54812
  89        4S          0.61485
  90        5S         -0.03230
  91        6PX         0.46518
  92        6PY         0.35096
  93        6PZ         0.43674
  94        7PX         0.41276
  95        7PY         0.41132
  96        7PZ         0.52132
  97        8PX         0.09659
  98        8PY         0.00743
  99        8PZ         0.17242
 100        9D 0        0.00423
 101        9D+1        0.01120
 102        9D-1        0.00697
 103        9D+2        0.01771
 104        9D-2        0.01756
 105 6   Cl 1S          2.01319
 106        2S          0.43255
 107        3S          1.52292
 108        4S          1.16313
 109        5S          0.79906
 110        6PX         1.95495
 111        6PY         1.95127
 112        6PZ         1.95711
 113        7PX         0.38964
 114        7PY         0.33973
 115        7PZ         0.41916
 116        8PX         0.92855
 117        8PY         0.78870
 118        8PZ         1.00254
 119        9PX         0.43472
 120        9PY         0.30950
 121        9PZ         0.53708
 122       10D 0        0.00586
 123       10D+1        0.00319
 124       10D-1        0.00664
 125       10D+2        0.00736
 126       10D-2        0.01579
          Condensed to atoms (all electrons):
               1          2          3          4          5          6
     1  Cl  16.824502  -0.008043   0.004489  -0.124706   0.373254  -0.087388
     2  Cl  -0.008043  16.825039  -0.087231   0.372949  -0.124596   0.004489
     3  Cl   0.004489  -0.087231  16.824730   0.373125  -0.124708  -0.008151
     4  C   -0.124706   0.372949   0.373125   5.426305   0.112028  -0.124703
     5  C    0.373254  -0.124596  -0.124708   0.112028   5.426349   0.373060
     6  Cl  -0.087388   0.004489  -0.008151  -0.124703   0.373060  16.825339
 Mulliken charges:
               1
     1  Cl   0.017892
     2  Cl   0.017394
     3  Cl   0.017747
     4  C   -0.034999
     5  C   -0.035387
     6  Cl   0.017353
 Sum of Mulliken charges =   0.00000
 Mulliken charges with hydrogens summed into heavy atoms:
               1
     1  Cl   0.017892
     2  Cl   0.017394
     3  Cl   0.017747
     4  C   -0.034999
     5  C   -0.035387
     6  Cl   0.017353
 Electronic spatial extent (au):  <R**2>=           1295.6435
 Charge=              0.0000 electrons
 Dipole moment (field-independent basis, Debye):
    X=              0.0003    Y=              0.0013    Z=             -0.0004  Tot=              0.0014
 Quadrupole moment (field-independent basis, Debye-Ang):
   XX=            -60.9511   YY=            -58.8412   ZZ=            -61.6632
   XY=              0.0074   XZ=              0.0008   YZ=              0.0000
 Traceless Quadrupole moment (field-independent basis, Debye-Ang):
   XX=             -0.4660   YY=              1.6440   ZZ=             -1.1780
   XY=              0.0074   XZ=              0.0008   YZ=              0.0000
 Octapole moment (field-independent basis, Debye-Ang**2):
  XXX=              0.0093  YYY=             -0.0087  ZZZ=             -0.0041  XYY=             -0.0012
  XXY=              0.0145  XXZ=             -0.0055  XZZ=              0.0013  YZZ=              0.0003
  YYZ=             -0.0071  XYZ=             -0.0112
 Hexadecapole moment (field-independent basis, Debye-Ang**3):
 XXXX=           -855.4826 YYYY=           -661.9346 ZZZZ=            -68.8948 XXXY=             -0.0139
 XXXZ=              0.0071 YYYX=              0.0551 YYYZ=              0.0000 ZZZX=              0.0022
 ZZZY=              0.0000 XXYY=           -228.6759 XXZZ=           -158.0862 YYZZ=           -131.5960
 XXYZ=              0.0000 YYXZ=              0.0073 ZZXY=              0.0067
 N-N= 4.893197622905D+02 E-N=-5.530506600163D+03  KE= 1.912285493620D+03
 Orbital energies and kinetic energies (alpha):
                                 1                 2
   1         O              -101.595245        137.096621
   2         O              -101.595210        137.096718
   3         O              -101.595181        137.096322
   4         O              -101.595121        137.096440
   5         O               -10.321029         15.941685
   6         O               -10.320192         15.950399
   7         O                -9.504526         21.525087
   8         O                -9.504490         21.524736
   9         O                -9.504445         21.526561
  10         O                -9.504394         21.526243
  11         O                -7.269127         20.486797
  12         O                -7.269091         20.486806
  13         O                -7.269052         20.486819
  14         O                -7.268999         20.486814
  15         O                -7.258209         20.508055
  16         O                -7.258171         20.508059
  17         O                -7.258131         20.508072
  18         O                -7.258080         20.508062
  19         O                -7.257752         20.508369
  20         O                -7.257714         20.508371
  21         O                -7.257676         20.508382
  22         O                -7.257622         20.508374
  23         O                -0.969029          2.261597
  24         O                -0.914964          2.747334
  25         O                -0.874705          2.990517
  26         O                -0.852357          3.258831
  27         O                -0.746808          2.545330
  28         O                -0.575962          2.540275
  29         O                -0.519916          2.086990
  30         O                -0.518445          2.167675
  31         O                -0.458784          1.492782
  32         O                -0.447844          2.449641
  33         O                -0.390696          2.146565
  34         O                -0.373464          2.320636
  35         O                -0.361072          2.449364
  36         O                -0.358028          2.403273
  37         O                -0.353365          2.475034
  38         O                -0.346754          2.520881
  39         O                -0.319328          2.761642
  40         O                -0.267480          2.130586
  41         V                -0.045838          1.831324
  42         V                -0.029319          2.406006
  43         V                -0.023179          2.858332
  44         V                -0.011588          2.447453
  45         V                 0.089520          0.744142
  46         V                 0.119129          1.856780
  47         V                 0.168635          1.067102
  48         V                 0.199001          1.238720
  49         V                 0.208078          0.944724
  50         V                 0.232711          1.177797
  51         V                 0.242043          1.380249
  52         V                 0.244951          0.946938
  53         V                 0.282080          1.308819
  54         V                 0.292394          1.165881
  55         V                 0.297280          1.275532
  56         V                 0.327709          2.000572
  57         V                 0.331011          1.599425
  58         V                 0.341173          1.795584
  59         V                 0.351904          1.769366
  60         V                 0.358639          1.911969
  61         V                 0.365140          1.463679
  62         V                 0.391776          1.528848
  63         V                 0.396336          1.578252
  64         V                 0.397743          1.503401
  65         V                 0.455643          2.079412
  66         V                 0.522132          2.441149
  67         V                 0.631094          3.015741
  68         V                 0.664251          2.194178
  69         V                 0.688031          2.269308
  70         V                 0.717653          2.250070
  71         V                 0.733026          2.516272
  72         V                 0.746072          2.278221
  73         V                 0.750250          2.298024
  74         V                 0.751279          2.290370
  75         V                 0.768989          2.285501
  76         V                 0.770639          2.731996
  77         V                 0.771968          2.526239
  78         V                 0.790089          2.620024
  79         V                 0.803920          2.460037
  80         V                 0.830902          2.631820
  81         V                 0.835362          2.978479
  82         V                 0.861744          2.256020
  83         V                 0.871234          2.399049
  84         V                 0.890247          2.317394
  85         V                 0.963058          2.614917
  86         V                 0.979021          2.721623
  87         V                 1.035845          3.480548
  88         V                 1.086200          3.855298
  89         V                 1.151998          4.094479
  90         V                 1.191868          4.409622
  91         V                 1.201904          3.012959
  92         V                 1.355192          3.683187
  93         V                 1.363116          4.148443
  94         V                 1.385012          3.541498
  95         V                 1.440960          3.642829
  96         V                 1.472185          3.132534
  97         V                 1.495648          3.982406
  98         V                 1.591914          3.035432
  99         V                 1.629075          4.309213
 100         V                 1.844327          3.815956
 101         V                 1.911491          4.579188
 102         V                 1.982503          5.178154
 103         V                 2.021459          5.616927
 104         V                 2.107998          6.616007
 105         V                 2.229643          8.441333
 106         V                 2.234216          8.168934
 107         V                 2.256960          8.482313
 108         V                 2.269260          5.731177
 109         V                 2.269502          8.440400
 110         V                 2.275858          7.773957
 111         V                 2.307096          8.011566
 112         V                 2.335503          7.615066
 113         V                 2.344382          4.365479
 114         V                 2.353249          7.980359
 115         V                 2.436735          7.017640
 116         V                 2.540698          7.515804
 117         V                 2.572977          7.154050
 118         V                 2.710318          6.545834
 119         V                 2.807033          5.840785
 120         V                 3.112081          4.749814
 121         V                21.192707         54.876118
 122         V                21.773098         55.436083
 123         V                24.438263         43.833543
 124         V                24.924496         44.377399
 125         V                24.961043         44.381521
 126         V                25.299607         44.749779
 Total kinetic energy from orbitals= 1.912285493620D+03
 No NMR shielding tensors so no spin-rotation constants.
 Leave Link  601 at Fri Jul  9 15:20:22 2021, MaxMem=  8388608000 cpu:         5.2
 (Enter /opt/Gaussian/g09-d01-bipbip-intel//g09/l9999.exe)
 1\1\GINC-NODE33\FOpt\RB3LYP\TZVP\C2Cl4\KBATRA\09-Jul-2021\0\\#p b3lyp/
 tzvp opt empiricaldispersion=gd3bj pop=full\\pce-example optimization\
 \0,1\Cl,-1.0611710644,-3.1710254716,-3.3605758382\Cl,1.837062638,-2.14
 8960926,-2.463518914\Cl,0.6166775114,0.182911225,-1.1839129659\C,0.383
 6825302,-1.2812561232,-2.0836291931\C,-0.8266789844,-1.7089699752,-2.4
 582580232\Cl,-2.2796726308,-0.841298729,-2.0771050657\\Version=ES64L-G
 09RevD.01\State=1-A\HF=-1917.0924996\RMSD=2.713e-09\RMSF=1.044e-04\Dip
 ole=0.0001144,-0.0003846,-0.0003846\Quadrupole=-0.082419,0.513067,-0.4
 30648,-0.5391051,-0.247515,0.7815961\PG=C01 [X(C2Cl4)]\\@


 THE WORLD IS MADE UP OF THE WILLS, THE WON'TS, AND THE CANT'S:
 THE WILLS DO EVERYTHING,
 THE WON'TS DO NOTHING,
 THE CAN'TS CAN'T DO ANYTHING.

                               -- FROM WALT DISNEY'S "BLACK HOLE"
 Job cpu time:       0 days  0 hours 42 minutes 38.8 seconds.
 File lengths (MBytes):  RWF=     10 Int=      0 D2E=      0 Chk=      3 Scr=      1
 Normal termination of Gaussian 09 at Fri Jul  9 15:20:22 2021.
