t073
/scratch/orca.kbatra.ORCA.7755
EXE=/chemsoft/orca/orca_4_0_1_2_linux_x86-64_openmpi202/orca

                                 *****************
                                 * O   R   C   A *
                                 *****************

           --- An Ab Initio, DFT and Semiempirical electronic structure package ---

                  #######################################################
                  #                        -***-                        #
                  #  Department of molecular theory and spectroscopy    #
                  #              Directorship: Frank Neese              #
                  # Max Planck Institute for Chemical Energy Conversion #
                  #                  D-45470 Muelheim/Ruhr              #
                  #                       Germany                       #
                  #                                                     #
                  #                  All rights reserved                #
                  #                        -***-                        #
                  #######################################################


                         Program Version 4.0.1.2 - RELEASE -


 With contributions from (in alphabetic order):
   Daniel Aravena         : Magnetic Properties
   Michael Atanasov       : Ab Initio Ligand Field Theory
   Ute Becker             : Parallelization
   Martin Brehm           : Molecular dynamics
   Dmytro Bykov           : SCF Hessian
   Vijay G. Chilkuri      : MRCI spin determinant printing
   Dipayan Datta          : RHF DLPNO-CCSD density
   Achintya Kumar Dutta   : EOM-CC, STEOM-CC
   Dmitry Ganyushin       : Spin-Orbit,Spin-Spin,Magnetic field MRCI
   Yang Guo               : DLPNO-NEVPT2, CIM, IAO-localization
   Andreas Hansen         : Spin unrestricted coupled pair/coupled cluster methods
   Lee Huntington         : MR-EOM, pCC
   Robert Izsak           : Overlap fitted RIJCOSX, COSX-SCS-MP3, EOM
   Christian Kollmar      : KDIIS, OOCD, Brueckner-CCSD(T), CCSD density
   Simone Kossmann        : Meta GGA functionals, TD-DFT gradient, OOMP2, MP2 Hessian
   Martin Krupicka        : AUTO-CI
   Dagmar Lenk            : GEPOL surface
   Dimitrios Liakos       : Extrapolation schemes; parallel MDCI
   Dimitrios Manganas     : ROCIS; embedding schemes
   Dimitrios Pantazis     : SARC Basis sets
   Taras Petrenko         : DFT Hessian,TD-DFT gradient, ASA, ECA, R-Raman, ABS, FL, XAS/XES, NRVS
   Peter Pinski           : DLPNO-MP2
   Christoph Reimann      : Effective Core Potentials
   Marius Retegan         : Local ZFS, SOC
   Christoph Riplinger    : Optimizer, TS searches, QM/MM, DLPNO-CCSD(T), (RO)-DLPNO pert. Triples
   Tobias Risthaus        : Range-separated hybrids, TD-DFT gradient, RPA, STAB
   Michael Roemelt        : Restricted open shell CIS
   Masaaki Saitow         : Open-shell DLPNO
   Barbara Sandhoefer     : DKH picture change effects
   Kantharuban Sivalingam : CASSCF convergence, NEVPT2, FIC-MRCI
   Georgi Stoychev        : AutoAux
   Boris Wezisla          : Elementary symmetry handling
   Frank Wennmohs         : Technical directorship


 We gratefully acknowledge several colleagues who have allowed us to
 interface, adapt or use parts of their codes:
   Stefan Grimme, W. Hujo, H. Kruse,             : VdW corrections, initial TS optimization,
                  C. Bannwarth                     DFT functionals, gCP, sTDA/sTD-DF
   Ed Valeev                                     : LibInt (2-el integral package), F12 methods
   Garnet Chan, S. Sharma, J. Yang, R. Olivares  : DMRG
   Ulf Ekstrom                                   : XCFun DFT Library
   Mihaly Kallay                                 : mrcc  (arbitrary order and MRCC methods)
   Andreas Klamt, Michael Diedenhofen            : otool_cosmo (COSMO solvation model)
   Jiri Pittner, Ondrej Demel                    : Mk-CCSD
   Frank Weinhold                                : gennbo (NPA and NBO analysis)
   Christopher J. Cramer and Donald G. Truhlar   : smd solvation model


 Your calculation uses the libint2 library for the computation of 2-el integrals
 For citations please refer to: http://libint.valeyev.net

 This ORCA versions uses:
   CBLAS   interface :  Fast vector & matrix operations
   LAPACKE interface :  Fast linear algebra routines
   SCALAPACK package :  Parallel linear algebra routines


Your calculation utilizes the atom-pairwise dispersion correction
with the Becke-Johnson damping scheme (D3BJ)
Cite in your paper:
S.Grimme, S.Ehrlich, L.Goerigk, J Comput Chem, (2011), 32, 1456–1465 
S.Grimme, J.Antony, S.Ehrlich and H.Krieg, J.Chem.Phys., 132, (2010), 154104 
   

Your calculation utilizes the basis: TZVP 

Your calculation utilizes the auxiliary basis: def2/J
   F. Weigend, Phys. Chem. Chem. Phys. 8, 1057 (2006).

================================================================================
                                        WARNINGS
                       Please study these warnings very carefully!
================================================================================

Warning: TCutStore was < 0. Adjusted to Thresh (uncritical)

WARNING: Geometry Optimization
  ===> : Switching off AutoStart
         For restart on a previous wavefunction, please use MOREAD

INFO   : the flag for use of LIBINT has been found!

================================================================================
                                       INPUT FILE
================================================================================
NAME = ./orca.inp
|  1> !PAL16 BLYP D3BJ TZVP DEF2/J RI SCFCONV8 TIGHTSCF OPT Grid5 GridX5 NOFINALGRID
|  2> 
|  3> * xyz 0 1
|  4> C      -6.99611829       0.66091257      -4.65400498
|  5> C      -6.75739398      -0.69552874      -4.45969197
|  6> C      -6.79255432      -1.54672949      -5.55915859
|  7> C      -7.05260973      -1.05182300      -6.82649826
|  8> C      -7.28347866       0.30196392      -7.01059841
|  9> C      -7.25575678       1.15724677      -5.92056438
| 10> C      -6.45274119      -1.22749387      -3.10063765
| 11> C      -7.41286833      -2.05015166      -2.51989995
| 12> N      -7.31376588      -2.70468646      -1.32399473
| 13> C      -8.45023639      -3.41970753      -1.07029252
| 14> C      -9.33035320      -3.18860386      -2.17107810
| 15> C      -8.70116357      -2.36404017      -3.04937491
| 16> C      -8.69186995      -4.21891290       0.04235901
| 17> C      -9.98162456      -4.96410596       0.07623135
| 18> C     -10.22429932      -6.00574267      -0.81385913
| 19> C     -11.40268306      -6.72673129      -0.75383637
| 20> C     -12.36207046      -6.40878242       0.20014725
| 21> C     -12.13417232      -5.36043182       1.08346041
| 22> C     -10.95412131      -4.64636869       1.02101728
| 23> C     -13.63273611      -7.16074541       0.32142647
| 24> O     -13.74471683      -8.16100884      -0.57565562
| 25> H     -10.32080611      -3.60036135      -2.25791942
| 26> H      -9.08554577      -1.98363097      -3.97956842
| 27> C      -7.81831755      -4.38634458       1.12113563
| 28> C      -8.06837856      -5.31983234       2.20955246
| 29> C      -7.02706630      -5.21006977       3.05015534
| 30> C      -6.14174168      -4.20791783       2.47833395
| 31> N      -6.63978097      -3.74255691       1.30537760
| 32> H      -8.91744695      -5.97610239       2.29437404
| 33> C      -4.94913001      -3.81064097       3.08640703
| 34> C      -4.04432720      -2.89780702       2.55602091
| 35> N      -4.12591048      -2.27585156       1.34191708
| 36> C      -3.04870873      -1.45801301       1.14803938
| 37> C      -2.24618915      -1.55460527       2.32569234
| 38> C      -2.84676566      -2.42836998       3.17534750
| 39> H      -6.85168959      -5.75505268       3.96188284
| 40> C      -2.78585596      -0.69368537       0.01658833
| 41> C      -1.51981304       0.09350185       0.02091813
| 42> C      -1.55552637       1.48210104       0.10068417
| 43> C      -0.38643544       2.21981257       0.10682169
| 44> C       0.84206773       1.57390834       0.03218118
| 45> C       0.88673505       0.18741725      -0.04893643
| 46> C      -0.28477650      -0.54448103      -0.05309484
| 47> H      -1.33083536      -1.01276069       2.48772098
| 48> H      -2.50997032      -2.72727194       4.15261027
| 49> C       2.12337823       2.31833562       0.03848055
| 50> O       3.21404962       1.81345111      -0.01152079
| 51> O     -14.49492123      -6.92986529       1.12791379
| 52> C      -4.60005654      -4.40969346       4.40706099
| 53> C      -3.57501917      -5.34408901       4.50620961
| 54> C      -3.25588993      -5.91446700       5.72748172
| 55> C      -3.95741531      -5.55429731       6.86702027
| 56> C      -4.97767171      -4.62059396       6.77831023
| 57> C      -5.29717864      -4.05268870       5.55588200
| 58> C      -3.60442484      -0.61579852      -1.11331280
| 59> N      -4.81633665      -1.20391087      -1.26741444
| 60> C      -5.23743329      -0.86674165      -2.51193638
| 61> C      -4.23864287      -0.05267797      -3.18768255
| 62> C      -3.22777064       0.10705494      -2.31815063
| 63> H      -4.31025173       0.32181931      -4.19429678
| 64> H      -2.30406034       0.63900938      -2.46978952
| 65> O       1.95964900       3.65454139       0.11117914
| 66> H      -3.71043219      -6.00038977       7.82156387
| 67> H      -7.48319125       0.68925084      -8.00114231
| 68> H      -6.52385363      -2.64162028      -0.69495238
| 69> H      -4.89115861      -2.38178288       0.68854193
| 70> H      -2.46040300      -6.64596192       5.78738070
| 71> H      -3.03251236      -5.62966198       3.61403643
| 72> H      -6.09499064      -3.32446566       5.48614600
| 73> H      -5.52795457      -4.33259762       7.66461861
| 74> H     -11.57883587      -7.54339781      -1.43909192
| 75> H      -9.47075055      -6.26235851      -1.54663392
| 76> H     -10.77391112      -3.83438950       1.71286114
| 77> H     -12.89205560      -5.12054058       1.81657962
| 78> H      -7.06834896      -1.72538513      -7.67360772
| 79> H      -6.60231859      -2.60283100      -5.41721392
| 80> H      -6.97429372       1.32867292      -3.80256181
| 81> H      -7.43696878       2.21567826      -6.05548255
| 82> H       1.84907390      -0.30190644      -0.11170124
| 83> H      -0.24955685      -1.62367178      -0.12187321
| 84> H      -2.51213585       1.98365907       0.16242050
| 85> H      -0.42141072       3.29769378       0.17253733
| 86> H     -14.59711044      -8.58959226      -0.41472923
| 87> H       2.84390359       4.04720136       0.11144875
| 88> *
| 89> 
| 90>                          ****END OF INPUT****
================================================================================

                       *****************************
                       * Geometry Optimization Run *
                       *****************************

Geometry optimization settings:
Update method            Update   .... BFGS
Choice of coordinates    CoordSys .... Redundant Internals
Initial Hessian          InHess   .... Almoef's Model

Convergence Tolerances:
Energy Change            TolE     ....  5.0000e-06 Eh
Max. Gradient            TolMAXG  ....  3.0000e-04 Eh/bohr
RMS Gradient             TolRMSG  ....  1.0000e-04 Eh/bohr
Max. Displacement        TolMAXD  ....  4.0000e-03 bohr
RMS Displacement         TolRMSD  ....  2.0000e-03 bohr

------------------------------------------------------------------------------
                        ORCA OPTIMIZATION COORDINATE SETUP
------------------------------------------------------------------------------

The optimization will be done in new redundant internal coordinates
Making redundant internal coordinates   ...  (new redundants) done
Evaluating the initial hessian          ...  (Almloef) done
Evaluating the coordinates              ...  done
Calculating the B-matrix                .... done
Calculating the G-matrix                .... done
Diagonalizing the G-matrix              .... done
Small eigenvalue found = 1.599e-03
Small eigenvalue found = 1.712e-03
Small eigenvalue found = 1.855e-03
Small eigenvalue found = 3.458e-03
Small eigenvalue found = 4.196e-03
Small eigenvalue found = 5.366e-03
Small eigenvalue found = 6.796e-03
Small eigenvalue found = 9.750e-03
Small eigenvalue found = 1.112e-02
Small eigenvalue found = 1.714e-02
Small eigenvalue found = 1.960e-02
Small eigenvalue found = 2.654e-02
Small eigenvalue found = 2.991e-02
The first mode is                       ....  222
The number of degrees of freedom        ....  246

    -----------------------------------------------------------------
                    Redundant Internal Coordinates


    -----------------------------------------------------------------
         Definition                    Initial Value    Approx d2E/dq
    -----------------------------------------------------------------
      1. B(C   1,C   0)                  1.3909         0.622671   
      2. B(C   2,C   1)                  1.3909         0.622732   
      3. B(C   3,C   2)                  1.3852         0.635969   
      4. B(C   4,C   3)                  1.3856         0.634940   
      5. B(C   5,C   4)                  1.3858         0.634503   
      6. B(C   5,C   0)                  1.3849         0.636626   
      7. B(C   6,C   1)                  1.4909         0.431255   
      8. B(C   7,C   6)                  1.3914         0.621696   
      9. B(N   8,C   7)                  1.3669         0.609149   
     10. B(C   9,N   8)                  1.3664         0.610166   
     11. B(C  10,C   9)                  1.4282         0.543000   
     12. B(C  11,C  10)                  1.3591         0.699867   
     13. B(C  11,C   7)                  1.4278         0.543817   
     14. B(C  12,C   9)                  1.3911         0.622318   
     15. B(C  13,C  12)                  1.4899         0.432800   
     16. B(C  14,C  13)                  1.3915         0.621456   
     17. B(C  15,C  14)                  1.3828         0.641645   
     18. B(C  16,C  15)                  1.3898         0.625209   
     19. B(C  17,C  16)                  1.3897         0.625525   
     20. B(C  18,C  13)                  1.3926         0.618863   
     21. B(C  18,C  17)                  1.3807         0.646534   
     22. B(C  19,C  16)                  1.4815         0.446485   
     23. B(O  20,C  19)                  1.3483         0.652317   
     24. B(H  21,C  10)                  1.0761         0.378906   
     25. B(H  22,C  11)                  1.0760         0.379140   
     26. B(C  23,C  12)                  1.3982         0.606317   
     27. B(C  24,C  23)                  1.4555         0.491114   
     28. B(C  25,C  24)                  1.3428         0.743215   
     29. B(C  26,C  25)                  1.4543         0.493285   
     30. B(N  27,C  26)                  1.3566         0.632592   
     31. B(N  27,C  23)                  1.3555         0.635232   
     32. B(H  28,C  24)                  1.0765         0.378441   
     33. B(C  29,C  26)                  1.3964         0.610301   
     34. B(C  30,C  29)                  1.3904         0.623853   
     35. B(N  31,C  30)                  1.3666         0.609882   
     36. B(C  32,N  31)                  1.3663         0.610472   
     37. B(C  33,C  32)                  1.4284         0.542657   
     38. B(C  34,C  33)                  1.3587         0.700927   
     39. B(C  34,C  30)                  1.4276         0.544156   
     40. B(H  35,C  25)                  1.0766         0.378307   
     41. B(C  36,C  32)                  1.3905         0.623667   
     42. B(C  37,C  36)                  1.4908         0.431405   
     43. B(C  38,C  37)                  1.3913         0.621713   
     44. B(C  39,C  38)                  1.3824         0.642486   
     45. B(C  40,C  39)                  1.3900         0.624893   
     46. B(C  41,C  40)                  1.3896         0.625761   
     47. B(C  42,C  41)                  1.3814         0.644966   
     48. B(C  42,C  37)                  1.3921         0.620099   
     49. B(H  43,C  33)                  1.0760         0.379140   
     50. B(H  44,C  34)                  1.0760         0.379079   
     51. B(C  45,C  40)                  1.4819         0.445810   
     52. B(O  46,C  45)                  1.2029         1.112702   
     53. B(O  47,C  19)                  1.2030         1.112501   
     54. B(C  48,C  29)                  1.4916         0.430187   
     55. B(C  49,C  48)                  1.3905         0.623537   
     56. B(C  50,C  49)                  1.3852         0.635995   
     57. B(C  51,C  50)                  1.3858         0.634539   
     58. B(C  52,C  51)                  1.3859         0.634383   
     59. B(C  53,C  52)                  1.3853         0.635783   
     60. B(C  53,C  48)                  1.3904         0.623871   
     61. B(C  54,C  36)                  1.3974         0.607983   
     62. B(N  55,C  54)                  1.3559         0.634374   
     63. B(C  56,C   6)                  1.3977         0.607275   
     64. B(C  56,N  55)                  1.3564         0.633098   
     65. B(C  57,C  56)                  1.4550         0.492148   
     66. B(C  58,C  57)                  1.3429         0.742736   
     67. B(C  58,C  54)                  1.4547         0.492704   
     68. B(H  59,C  57)                  1.0764         0.378541   
     69. B(H  60,C  58)                  1.0767         0.378178   
     70. B(O  61,C  45)                  1.3482         0.652570   
     71. B(H  62,C  51)                  1.0822         0.370570   
     72. B(H  63,C   4)                  1.0822         0.370633   
     73. B(H  64,N   8)                  1.0117         0.429939   
     74. B(H  65,N  31)                  1.0118         0.429867   
     75. B(H  66,C  50)                  1.0823         0.370369   
     76. B(H  67,C  49)                  1.0825         0.370139   
     77. B(H  68,C  53)                  1.0824         0.370241   
     78. B(H  69,C  52)                  1.0823         0.370480   
     79. B(H  70,C  15)                  1.0805         0.372845   
     80. B(H  71,C  14)                  1.0820         0.370889   
     81. B(H  72,C  18)                  1.0819         0.371023   
     82. B(H  73,C  17)                  1.0814         0.371676   
     83. B(H  74,C   3)                  1.0824         0.370334   
     84. B(H  75,C   2)                  1.0824         0.370234   
     85. B(H  76,C   0)                  1.0823         0.370455   
     86. B(H  77,C   5)                  1.0823         0.370466   
     87. B(H  78,C  41)                  1.0814         0.371629   
     88. B(H  79,C  42)                  1.0820         0.370903   
     89. B(H  80,C  38)                  1.0819         0.370998   
     90. B(H  81,C  39)                  1.0804         0.372959   
     91. B(H  82,O  20)                  0.9676         0.505730   
     92. B(H  83,O  61)                  0.9675         0.505795   
     93. A(C   1,C   0,H  76)          119.2309         0.354866   
     94. A(C   1,C   0,C   5)          120.6269         0.436477   
     95. A(C   5,C   0,H  76)          120.1420         0.356203   
     96. A(C   0,C   1,C   6)          120.6887         0.407157   
     97. A(C   2,C   1,C   6)          120.4887         0.407164   
     98. A(C   0,C   1,C   2)          118.8185         0.434746   
     99. A(C   1,C   2,C   3)          120.6185         0.436403   
    100. A(C   1,C   2,H  75)          119.2738         0.354836   
    101. A(C   3,C   2,H  75)          120.1036         0.356105   
    102. A(C   2,C   3,C   4)          120.1274         0.437933   
    103. A(C   2,C   3,H  74)          119.7656         0.356121   
    104. A(C   4,C   3,H  74)          120.1058         0.356023   
    105. A(C   5,C   4,H  63)          120.1854         0.356030   
    106. A(C   3,C   4,H  63)          120.1345         0.356072   
    107. A(C   3,C   4,C   5)          119.6801         0.437751   
    108. A(C   4,C   5,H  77)          120.1439         0.356003   
    109. A(C   0,C   5,C   4)          120.1272         0.437960   
    110. A(C   0,C   5,H  77)          119.7289         0.356205   
    111. A(C   1,C   6,C  56)          118.0024         0.405359   
    112. A(C   7,C   6,C  56)          125.2261         0.432663   
    113. A(C   1,C   6,C   7)          116.7715         0.407044   
    114. A(C   6,C   7,C  11)          126.7161         0.424184   
    115. A(N   8,C   7,C  11)          106.5345         0.419895   
    116. A(C   6,C   7,N   8)          126.7460         0.430073   
    117. A(C   7,N   8,C   9)          110.6528         0.425836   
    118. A(C   7,N   8,H  64)          124.8002         0.357203   
    119. A(C   9,N   8,H  64)          124.5080         0.357304   
    120. A(N   8,C   9,C  12)          126.4129         0.430279   
    121. A(C  10,C   9,C  12)          127.0425         0.424146   
    122. A(N   8,C   9,C  10)          106.5441         0.419908   
    123. A(C   9,C  10,C  11)          108.1176         0.433174   
    124. A(C   9,C  10,H  21)          124.5731         0.348073   
    125. A(C  11,C  10,H  21)          127.3055         0.363390   
    126. A(C   7,C  11,H  22)          124.4167         0.348198   
    127. A(C  10,C  11,H  22)          127.4296         0.363429   
    128. A(C   7,C  11,C  10)          108.1463         0.433291   
    129. A(C  13,C  12,C  23)          117.6069         0.405502   
    130. A(C   9,C  12,C  23)          125.2682         0.432618   
    131. A(C   9,C  12,C  13)          117.1224         0.407373   
    132. A(C  12,C  13,C  14)          120.7195         0.407274   
    133. A(C  14,C  13,C  18)          118.8809         0.434106   
    134. A(C  12,C  13,C  18)          120.3854         0.406973   
    135. A(C  13,C  14,H  71)          119.2956         0.354819   
    136. A(C  13,C  14,C  15)          120.7428         0.436941   
    137. A(C  15,C  14,H  71)          119.9509         0.356750   
    138. A(C  16,C  15,H  70)          119.7145         0.355499   
    139. A(C  14,C  15,H  70)          120.3636         0.357069   
    140. A(C  14,C  15,C  16)          119.9194         0.437416   
    141. A(C  17,C  16,C  19)          118.1338         0.409998   
    142. A(C  15,C  16,C  17)          119.7141         0.435415   
    143. A(C  15,C  16,C  19)          122.1505         0.409961   
    144. A(C  16,C  17,C  18)          120.1036         0.438055   
    145. A(C  16,C  17,H  73)          118.9032         0.355340   
    146. A(C  18,C  17,H  73)          120.9928         0.357339   
    147. A(C  13,C  18,H  72)          119.2599         0.354590   
    148. A(C  13,C  18,C  17)          120.6329         0.437210   
    149. A(C  17,C  18,H  72)          120.1064         0.357232   
    150. A(C  16,C  19,O  20)          113.1622         0.410393   
    151. A(O  20,C  19,O  47)          121.9335         0.480912   
    152. A(C  16,C  19,O  47)          124.9041         0.451669   
    153. A(C  19,O  20,H  82)          106.9256         0.371588   
    154. A(C  24,C  23,N  27)          110.6301         0.415431   
    155. A(C  12,C  23,N  27)          126.2434         0.431378   
    156. A(C  12,C  23,C  24)          123.1217         0.414687   
    157. A(C  25,C  24,H  28)          127.7476         0.367071   
    158. A(C  23,C  24,H  28)          125.8325         0.342180   
    159. A(C  23,C  24,C  25)          106.4079         0.430046   
    160. A(C  26,C  25,H  35)          125.6363         0.342413   
    161. A(C  24,C  25,H  35)          127.9607         0.367048   
    162. A(C  24,C  25,C  26)          106.3958         0.430386   
    163. A(N  27,C  26,C  29)          126.3314         0.431563   
    164. A(C  25,C  26,C  29)          123.0070         0.415496   
    165. A(C  25,C  26,N  27)          110.6614         0.415450   
    166. A(C  23,N  27,C  26)          105.8900         0.431837   
    167. A(C  26,C  29,C  30)          125.2013         0.433319   
    168. A(C  30,C  29,C  48)          116.6875         0.407115   
    169. A(C  26,C  29,C  48)          118.1103         0.405537   
    170. A(N  31,C  30,C  34)          106.6091         0.420032   
    171. A(C  29,C  30,C  34)          126.6037         0.424494   
    172. A(C  29,C  30,N  31)          126.7873         0.430433   
    173. A(C  32,N  31,H  65)          124.5640         0.357325   
    174. A(C  30,N  31,H  65)          124.8348         0.357266   
    175. A(C  30,N  31,C  32)          110.5743         0.425966   
    176. A(C  33,C  32,C  36)          127.0020         0.424262   
    177. A(N  31,C  32,C  36)          126.4075         0.430485   
    178. A(N  31,C  32,C  33)          106.5880         0.419898   
    179. A(C  32,C  33,C  34)          108.1027         0.433242   
    180. A(C  34,C  33,H  43)          127.2805         0.363523   
    181. A(C  32,C  33,H  43)          124.6160         0.348073   
    182. A(C  30,C  34,C  33)          108.1177         0.433457   
    183. A(C  33,C  34,H  44)          127.4621         0.363513   
    184. A(C  30,C  34,H  44)          124.4177         0.348225   
    185. A(C  32,C  36,C  37)          116.6420         0.407297   
    186. A(C  37,C  36,C  54)          118.0582         0.405467   
    187. A(C  32,C  36,C  54)          125.2984         0.433000   
    188. A(C  36,C  37,C  38)          120.3545         0.407071   
    189. A(C  38,C  37,C  42)          118.8959         0.434294   
    190. A(C  36,C  37,C  42)          120.7496         0.406884   
    191. A(C  37,C  38,C  39)          120.7397         0.437077   
    192. A(C  39,C  38,H  80)          120.0080         0.356847   
    193. A(C  37,C  38,H  80)          119.2518         0.354862   
    194. A(C  38,C  39,C  40)          119.9499         0.437479   
    195. A(C  40,C  39,H  81)          119.7005         0.355487   
    196. A(C  38,C  39,H  81)          120.3494         0.357167   
    197. A(C  41,C  40,C  45)          118.2742         0.409915   
    198. A(C  39,C  40,C  45)          122.0424         0.409814   
    199. A(C  39,C  40,C  41)          119.6833         0.435405   
    200. A(C  42,C  41,H  78)          120.9829         0.357184   
    201. A(C  40,C  41,H  78)          118.9122         0.355355   
    202. A(C  40,C  41,C  42)          120.1045         0.437893   
    203. A(C  41,C  42,H  79)          120.0711         0.357065   
    204. A(C  37,C  42,H  79)          119.3007         0.354690   
    205. A(C  37,C  42,C  41)          120.6266         0.437176   
    206. A(O  46,C  45,O  61)          121.8945         0.480963   
    207. A(C  40,C  45,O  61)          113.1487         0.410311   
    208. A(C  40,C  45,O  46)          124.9565         0.451560   
    209. A(C  49,C  48,C  53)          118.8955         0.434998   
    210. A(C  29,C  48,C  53)          120.7373         0.407117   
    211. A(C  29,C  48,C  49)          120.3656         0.407078   
    212. A(C  50,C  49,H  67)          120.1696         0.356092   
    213. A(C  48,C  49,H  67)          119.2043         0.354899   
    214. A(C  48,C  49,C  50)          120.6235         0.436508   
    215. A(C  51,C  50,H  66)          120.1460         0.355991   
    216. A(C  49,C  50,H  66)          119.7634         0.356130   
    217. A(C  49,C  50,C  51)          120.0898         0.437887   
    218. A(C  52,C  51,H  62)          120.1455         0.356009   
    219. A(C  50,C  51,H  62)          120.1747         0.356024   
    220. A(C  50,C  51,C  52)          119.6797         0.437686   
    221. A(C  53,C  52,H  69)          119.7562         0.356127   
    222. A(C  51,C  52,H  69)          120.0784         0.355994   
    223. A(C  51,C  52,C  53)          120.1654         0.437841   
    224. A(C  52,C  53,H  68)          120.1761         0.356088   
    225. A(C  48,C  53,H  68)          119.2783         0.354948   
    226. A(C  48,C  53,C  52)          120.5456         0.436524   
    227. A(N  55,C  54,C  58)          110.6616         0.415571   
    228. A(C  36,C  54,C  58)          123.0741         0.415128   
    229. A(C  36,C  54,N  55)          126.2494         0.431486   
    230. A(C  54,N  55,C  56)          105.8995         0.431794   
    231. A(N  55,C  56,C  57)          110.6156         0.415338   
    232. A(C   6,C  56,C  57)          123.0702         0.414959   
    233. A(C   6,C  56,N  55)          126.3141         0.431240   
    234. A(C  58,C  57,H  59)          127.8939         0.367047   
    235. A(C  56,C  57,H  59)          125.6846         0.342316   
    236. A(C  56,C  57,C  58)          106.4131         0.430158   
    237. A(C  57,C  58,H  60)          127.8338         0.366986   
    238. A(C  54,C  58,H  60)          125.7548         0.342326   
    239. A(C  54,C  58,C  57)          106.3963         0.430246   
    240. A(C  45,O  61,H  83)          106.9337         0.371621   
    241. D(C   6,C   1,C   0,C   5)    178.8568         0.026843   
    242. D(C   2,C   1,C   0,C   5)     -0.4112         0.026843   
    243. D(C   2,C   1,C   0,H  76)    179.7580         0.026843   
    244. D(C   6,C   1,C   0,H  76)     -0.9740         0.026843   
    245. D(H  75,C   2,C   1,C   0)    179.6569         0.026849   
    246. D(C   3,C   2,C   1,C   6)   -178.8828         0.026849   
    247. D(H  75,C   2,C   1,C   6)      0.3875         0.026849   
    248. D(C   3,C   2,C   1,C   0)      0.3867         0.026849   
    249. D(C   4,C   3,C   2,C   1)     -0.1144         0.028077   
    250. D(H  74,C   3,C   2,H  75)      0.2157         0.028077   
    251. D(C   4,C   3,C   2,H  75)   -179.3786         0.028077   
    252. D(H  74,C   3,C   2,C   1)    179.4799         0.028077   
    253. D(C   5,C   4,C   3,C   2)     -0.1398         0.027981   
    254. D(H  63,C   4,C   3,C   2)    179.7834         0.027981   
    255. D(H  63,C   4,C   3,H  74)      0.1905         0.027981   
    256. D(C   5,C   4,C   3,H  74)   -179.7327         0.027981   
    257. D(H  77,C   5,C   4,H  63)      0.1973         0.027940   
    258. D(H  77,C   5,C   0,H  76)     -0.0123         0.028139   
    259. D(C   0,C   5,C   4,H  63)   -179.8076         0.027940   
    260. D(C   0,C   5,C   4,C   3)      0.1154         0.027940   
    261. D(C   4,C   5,C   0,C   1)      0.1634         0.028139   
    262. D(H  77,C   5,C   4,C   3)   -179.8796         0.027940   
    263. D(C   4,C   5,C   0,H  76)    179.9927         0.028139   
    264. D(H  77,C   5,C   0,C   1)   -179.8415         0.028139   
    265. D(C  56,C   6,C   1,C   0)    -68.0956         0.012705   
    266. D(C   7,C   6,C   1,C   2)    -68.8267         0.012705   
    267. D(C   7,C   6,C   1,C   0)    111.9176         0.012705   
    268. D(C  56,C   6,C   1,C   2)    111.1600         0.012705   
    269. D(C  11,C   7,C   6,C   1)     -4.7117         0.026754   
    270. D(N   8,C   7,C   6,C   1)    176.0559         0.026754   
    271. D(N   8,C   7,C   6,C  56)     -3.9298         0.026754   
    272. D(C  11,C   7,C   6,C  56)    175.3026         0.026754   
    273. D(H  64,N   8,C   7,C  11)   -177.2866         0.029966   
    274. D(H  64,N   8,C   7,C   6)      2.0715         0.029966   
    275. D(C   9,N   8,C   7,C   6)    179.8806         0.029966   
    276. D(C   9,N   8,C   7,C  11)      0.5224         0.029966   
    277. D(C  12,C   9,N   8,H  64)     -3.1587         0.030073   
    278. D(C  10,C   9,N   8,H  64)    177.1101         0.030073   
    279. D(C  10,C   9,N   8,C   7)     -0.7066         0.030073   
    280. D(C  12,C   9,N   8,C   7)    179.0246         0.030073   
    281. D(H  21,C  10,C   9,C  12)      1.5495         0.020153   
    282. D(C  11,C  10,C   9,N   8)      0.6182         0.020153   
    283. D(C  11,C  10,C   9,C  12)   -179.1108         0.020153   
    284. D(H  21,C  10,C   9,N   8)   -178.7215         0.020153   
    285. D(C   7,C  11,C  10,H  21)    179.0092         0.034497   
    286. D(H  22,C  11,C  10,H  21)     -0.0260         0.034497   
    287. D(H  22,C  11,C  10,C   9)   -179.3424         0.034497   
    288. D(H  22,C  11,C   7,N   8)    178.9538         0.020216   
    289. D(C   7,C  11,C  10,C   9)     -0.3073         0.034497   
    290. D(H  22,C  11,C   7,C   6)     -0.4046         0.020216   
    291. D(C  10,C  11,C   7,C   6)   -179.4758         0.020216   
    292. D(C  10,C  11,C   7,N   8)     -0.1174         0.020216   
    293. D(C  23,C  12,C   9,N   8)      2.4332         0.026811   
    294. D(C  23,C  12,C   9,C  10)   -177.8895         0.026811   
    295. D(C  13,C  12,C   9,N   8)   -176.9731         0.026811   
    296. D(C  13,C  12,C   9,C  10)      2.7041         0.026811   
    297. D(C  18,C  13,C  12,C  23)     67.3630         0.012793   
    298. D(C  18,C  13,C  12,C   9)   -113.1840         0.012793   
    299. D(C  14,C  13,C  12,C  23)   -111.2536         0.012793   
    300. D(C  14,C  13,C  12,C   9)     68.1994         0.012793   
    301. D(H  71,C  14,C  13,C  12)     -0.9821         0.026732   
    302. D(C  15,C  14,C  13,C  18)     -0.8075         0.026732   
    303. D(C  15,C  14,C  13,C  12)    177.8296         0.026732   
    304. D(H  71,C  14,C  13,C  18)   -179.6192         0.026732   
    305. D(H  70,C  15,C  14,H  71)     -0.3342         0.028615   
    306. D(H  70,C  15,C  14,C  13)   -179.1380         0.028615   
    307. D(C  16,C  15,C  14,H  71)    179.0838         0.028615   
    308. D(C  16,C  15,C  14,C  13)      0.2799         0.028615   
    309. D(C  19,C  16,C  15,H  70)      0.3302         0.027076   
    310. D(C  19,C  16,C  15,C  14)   -179.0915         0.027076   
    311. D(C  17,C  16,C  15,H  70)    179.8522         0.027076   
    312. D(C  17,C  16,C  15,C  14)      0.4304         0.027076   
    313. D(H  73,C  17,C  16,C  19)     -0.8230         0.027105   
    314. D(H  73,C  17,C  16,C  15)    179.6360         0.027105   
    315. D(C  18,C  17,C  16,C  19)    178.9386         0.027105   
    316. D(C  18,C  17,C  16,C  15)     -0.6024         0.027105   
    317. D(H  72,C  18,C  17,H  73)      0.1562         0.029083   
    318. D(H  72,C  18,C  17,C  16)   -179.6003         0.029083   
    319. D(C  13,C  18,C  17,H  73)    179.8223         0.029083   
    320. D(C  13,C  18,C  17,C  16)      0.0657         0.029083   
    321. D(H  72,C  18,C  13,C  14)   -179.6971         0.026496   
    322. D(H  72,C  18,C  13,C  12)      1.6611         0.026496   
    323. D(C  17,C  18,C  13,C  14)      0.6341         0.026496   
    324. D(C  17,C  18,C  13,C  12)   -178.0078         0.026496   
    325. D(O  47,C  19,C  16,C  17)      0.3744         0.013593   
    326. D(O  47,C  19,C  16,C  15)    179.9036         0.013593   
    327. D(O  20,C  19,C  16,C  17)   -179.4794         0.013593   
    328. D(O  20,C  19,C  16,C  15)      0.0498         0.013593   
    329. D(H  82,O  20,C  19,O  47)     -0.0926         0.031466   
    330. D(H  82,O  20,C  19,C  16)    179.7661         0.031466   
    331. D(N  27,C  23,C  12,C  13)   -176.1993         0.025372   
    332. D(N  27,C  23,C  12,C   9)      4.3970         0.025372   
    333. D(C  24,C  23,C  12,C  13)      4.6714         0.025372   
    334. D(C  24,C  23,C  12,C   9)   -174.7323         0.025372   
    335. D(H  28,C  24,C  23,N  27)   -178.1715         0.016424   
    336. D(H  28,C  24,C  23,C  12)      1.0781         0.016424   
    337. D(C  25,C  24,C  23,N  27)      0.6400         0.016424   
    338. D(C  25,C  24,C  23,C  12)    179.8897         0.016424   
    339. D(H  35,C  25,C  24,H  28)     -0.1536         0.039324   
    340. D(C  26,C  25,C  24,H  28)    178.9097         0.039324   
    341. D(C  26,C  25,C  24,C  23)      0.1282         0.039324   
    342. D(H  35,C  25,C  24,C  23)   -178.9351         0.039324   
    343. D(C  29,C  26,C  25,H  35)     -1.6440         0.016570   
    344. D(C  29,C  26,C  25,C  24)    179.2646         0.016570   
    345. D(N  27,C  26,C  25,H  35)    178.2281         0.016570   
    346. D(N  27,C  26,C  25,C  24)     -0.8632         0.016570   
    347. D(C  23,N  27,C  26,C  29)   -178.8954         0.029448   
    348. D(C  23,N  27,C  26,C  25)      1.2377         0.029448   
    349. D(C  26,N  27,C  23,C  24)     -1.1555         0.029713   
    350. D(C  26,N  27,C  23,C  12)    179.6237         0.029713   
    351. D(C  48,C  29,C  26,N  27)    177.8241         0.025726   
    352. D(C  48,C  29,C  26,C  25)     -2.3244         0.025726   
    353. D(C  30,C  29,C  26,N  27)     -2.5276         0.025726   
    354. D(C  30,C  29,C  26,C  25)    177.3239         0.025726   
    355. D(C  34,C  30,C  29,C  48)     -3.1769         0.026952   
    356. D(C  34,C  30,C  29,C  26)    177.1703         0.026952   
    357. D(N  31,C  30,C  29,C  48)    176.7728         0.026952   
    358. D(N  31,C  30,C  29,C  26)     -2.8800         0.026952   
    359. D(H  65,N  31,C  30,C  34)   -177.3948         0.030043   
    360. D(H  65,N  31,C  30,C  29)      2.6474         0.030043   
    361. D(C  32,N  31,C  30,C  34)      0.7888         0.030043   
    362. D(C  32,N  31,C  30,C  29)   -179.1690         0.030043   
    363. D(C  36,C  32,N  31,H  65)     -3.3082         0.030106   
    364. D(C  36,C  32,N  31,C  30)    178.5023         0.030106   
    365. D(C  33,C  32,N  31,H  65)    177.2406         0.030106   
    366. D(C  33,C  32,N  31,C  30)     -0.9489         0.030106   
    367. D(C  34,C  33,C  32,N  31)      0.7385         0.020127   
    368. D(H  43,C  33,C  32,C  36)      1.6053         0.020127   
    369. D(H  43,C  33,C  32,N  31)   -178.9478         0.020127   
    370. D(C  34,C  33,C  32,C  36)   -178.7085         0.020127   
    371. D(H  44,C  34,C  33,H  43)     -0.0398         0.034610   
    372. D(H  44,C  34,C  33,C  32)   -179.7153         0.034610   
    373. D(C  30,C  34,C  33,H  43)    179.4082         0.034610   
    374. D(C  30,C  34,C  33,C  32)     -0.2673         0.034610   
    375. D(H  44,C  34,C  30,N  31)    179.1663         0.020242   
    376. D(H  44,C  34,C  30,C  29)     -0.8758         0.020242   
    377. D(C  33,C  34,C  30,N  31)     -0.3026         0.020242   
    378. D(C  33,C  34,C  30,C  29)    179.6554         0.020242   
    379. D(C  54,C  36,C  32,C  33)   -179.3532         0.026934   
    380. D(C  54,C  36,C  32,N  31)      1.3053         0.026934   
    381. D(C  37,C  36,C  32,C  33)      1.0844         0.026934   
    382. D(C  37,C  36,C  32,N  31)   -178.2570         0.026934   
    383. D(C  42,C  37,C  36,C  54)   -110.1905         0.012713   
    384. D(C  42,C  37,C  36,C  32)     69.4047         0.012713   
    385. D(C  38,C  37,C  36,C  54)     69.8751         0.012713   
    386. D(C  38,C  37,C  36,C  32)   -110.5297         0.012713   
    387. D(H  80,C  38,C  37,C  42)   -179.7583         0.026756   
    388. D(H  80,C  38,C  37,C  36)      0.1772         0.026756   
    389. D(C  39,C  38,C  37,C  42)     -0.0091         0.026756   
    390. D(C  39,C  38,C  37,C  36)    179.9265         0.026756   
    391. D(H  81,C  39,C  38,H  80)     -0.0333         0.028695   
    392. D(H  81,C  39,C  38,C  37)   -179.7806         0.028695   
    393. D(C  40,C  39,C  38,H  80)    179.7745         0.028695   
    394. D(C  40,C  39,C  38,C  37)      0.0271         0.028695   
    395. D(C  45,C  40,C  39,H  81)     -0.0439         0.027047   
    396. D(C  45,C  40,C  39,C  38)   -179.8530         0.027047   
    397. D(C  41,C  40,C  39,H  81)    179.8388         0.027047   
    398. D(C  41,C  40,C  39,C  38)      0.0298         0.027047   
    399. D(H  78,C  41,C  40,C  45)     -0.4301         0.027127   
    400. D(H  78,C  41,C  40,C  39)    179.6827         0.027127   
    401. D(C  42,C  41,C  40,C  45)    179.7821         0.027127   
    402. D(C  42,C  41,C  40,C  39)     -0.1050         0.027127   
    403. D(H  79,C  42,C  41,H  78)     -0.1267         0.028932   
    404. D(H  79,C  42,C  41,C  40)    179.6565         0.028932   
    405. D(C  37,C  42,C  41,H  78)   -179.6591         0.028932   
    406. D(C  37,C  42,C  41,C  40)      0.1242         0.028932   
    407. D(H  79,C  42,C  37,C  38)   -179.6026         0.026608   
    408. D(H  79,C  42,C  37,C  36)      0.4620         0.026608   
    409. D(C  41,C  42,C  37,C  38)     -0.0667         0.026608   
    410. D(C  41,C  42,C  37,C  36)    179.9980         0.026608   
    411. D(O  61,C  45,C  40,C  41)    179.5885         0.013553   
    412. D(O  61,C  45,C  40,C  39)     -0.5272         0.013553   
    413. D(O  46,C  45,C  40,C  41)     -0.5917         0.013553   
    414. D(O  46,C  45,C  40,C  39)    179.2927         0.013553   
    415. D(C  53,C  48,C  29,C  30)    108.4731         0.012644   
    416. D(C  53,C  48,C  29,C  26)    -71.8486         0.012644   
    417. D(C  49,C  48,C  29,C  30)    -71.9878         0.012644   
    418. D(C  49,C  48,C  29,C  26)    107.6906         0.012644   
    419. D(H  67,C  49,C  48,C  53)    179.6729         0.026923   
    420. D(H  67,C  49,C  48,C  29)      0.1253         0.026923   
    421. D(C  50,C  49,C  48,C  53)      0.2448         0.026923   
    422. D(C  50,C  49,C  48,C  29)   -179.3028         0.026923   
    423. D(H  66,C  50,C  49,H  67)      0.1127         0.028080   
    424. D(H  66,C  50,C  49,C  48)    179.5352         0.028080   
    425. D(C  51,C  50,C  49,H  67)   -179.5681         0.028080   
    426. D(C  51,C  50,C  49,C  48)     -0.1455         0.028080   
    427. D(H  62,C  51,C  50,H  66)      0.2093         0.027943   
    428. D(H  62,C  51,C  50,C  49)    179.8888         0.027943   
    429. D(C  52,C  51,C  50,H  66)   -179.7453         0.027943   
    430. D(C  52,C  51,C  50,C  49)     -0.0658         0.027943   
    431. D(H  69,C  52,C  51,H  62)      0.2117         0.027928   
    432. D(H  69,C  52,C  51,C  50)   -179.8337         0.027928   
    433. D(C  53,C  52,C  51,H  62)   -179.7805         0.027928   
    434. D(C  53,C  52,C  51,C  50)      0.1741         0.027928   
    435. D(H  68,C  53,C  52,H  69)     -0.0818         0.028060   
    436. D(H  68,C  53,C  52,C  51)    179.9105         0.028060   
    437. D(C  48,C  53,C  52,H  69)    179.9353         0.028060   
    438. D(C  48,C  53,C  52,C  51)     -0.0725         0.028060   
    439. D(H  68,C  53,C  48,C  49)    179.8810         0.026953   
    440. D(H  68,C  53,C  48,C  29)     -0.5732         0.026953   
    441. D(C  52,C  53,C  48,C  49)     -0.1359         0.026953   
    442. D(C  52,C  53,C  48,C  29)    179.4099         0.026953   
    443. D(C  58,C  54,C  36,C  37)      5.0900         0.025520   
    444. D(C  58,C  54,C  36,C  32)   -174.4667         0.025520   
    445. D(N  55,C  54,C  36,C  37)   -176.4455         0.025520   
    446. D(N  55,C  54,C  36,C  32)      3.9978         0.025520   
    447. D(C  56,N  55,C  54,C  58)     -1.0143         0.029627   
    448. D(C  56,N  55,C  54,C  36)   -179.6391         0.029627   
    449. D(C  57,C  56,N  55,C  54)      1.2231         0.029498   
    450. D(C   6,C  56,N  55,C  54)   -178.6881         0.029498   
    451. D(C  57,C  56,C   6,C   7)    177.0458         0.025457   
    452. D(C  57,C  56,C   6,C   1)     -2.9398         0.025457   
    453. D(N  55,C  56,C   6,C   7)     -3.0534         0.025457   
    454. D(N  55,C  56,C   6,C   1)    176.9611         0.025457   
    455. D(H  59,C  57,C  56,N  55)    178.0216         0.016493   
    456. D(H  59,C  57,C  56,C   6)     -2.0637         0.016493   
    457. D(C  58,C  57,C  56,N  55)     -0.9894         0.016493   
    458. D(C  58,C  57,C  56,C   6)    178.9253         0.016493   
    459. D(H  60,C  58,C  57,H  59)     -0.0169         0.039268   
    460. D(H  60,C  58,C  57,C  56)    178.9652         0.039268   
    461. D(C  54,C  58,C  57,H  59)   -178.6528         0.039268   
    462. D(C  54,C  58,C  57,C  56)      0.3292         0.039268   
    463. D(H  60,C  58,C  54,N  55)   -178.2566         0.016531   
    464. D(H  60,C  58,C  54,C  36)      0.4200         0.016531   
    465. D(C  57,C  58,C  54,N  55)      0.4158         0.016531   
    466. D(C  57,C  58,C  54,C  36)    179.0925         0.016531   
    467. D(H  83,O  61,C  45,O  46)      0.0416         0.031493   
    468. D(H  83,O  61,C  45,C  40)    179.8677         0.031493   
    -----------------------------------------------------------------

Number of atoms                         .... 84
Number of degrees of freedom            .... 468

         *************************************************************
         *                GEOMETRY OPTIMIZATION CYCLE   1            *
         *************************************************************
---------------------------------
CARTESIAN COORDINATES (ANGSTROEM)
---------------------------------
  C     -6.996118    0.660913   -4.654005
  C     -6.757394   -0.695529   -4.459692
  C     -6.792554   -1.546729   -5.559159
  C     -7.052610   -1.051823   -6.826498
  C     -7.283479    0.301964   -7.010598
  C     -7.255757    1.157247   -5.920564
  C     -6.452741   -1.227494   -3.100638
  C     -7.412868   -2.050152   -2.519900
  N     -7.313766   -2.704686   -1.323995
  C     -8.450236   -3.419708   -1.070293
  C     -9.330353   -3.188604   -2.171078
  C     -8.701164   -2.364040   -3.049375
  C     -8.691870   -4.218913    0.042359
  C     -9.981625   -4.964106    0.076231
  C    -10.224299   -6.005743   -0.813859
  C    -11.402683   -6.726731   -0.753836
  C    -12.362070   -6.408782    0.200147
  C    -12.134172   -5.360432    1.083460
  C    -10.954121   -4.646369    1.021017
  C    -13.632736   -7.160745    0.321426
  O    -13.744717   -8.161009   -0.575656
  H    -10.320806   -3.600361   -2.257919
  H     -9.085546   -1.983631   -3.979568
  C     -7.818318   -4.386345    1.121136
  C     -8.068379   -5.319832    2.209552
  C     -7.027066   -5.210070    3.050155
  C     -6.141742   -4.207918    2.478334
  N     -6.639781   -3.742557    1.305378
  H     -8.917447   -5.976102    2.294374
  C     -4.949130   -3.810641    3.086407
  C     -4.044327   -2.897807    2.556021
  N     -4.125910   -2.275852    1.341917
  C     -3.048709   -1.458013    1.148039
  C     -2.246189   -1.554605    2.325692
  C     -2.846766   -2.428370    3.175347
  H     -6.851690   -5.755053    3.961883
  C     -2.785856   -0.693685    0.016588
  C     -1.519813    0.093502    0.020918
  C     -1.555526    1.482101    0.100684
  C     -0.386435    2.219813    0.106822
  C      0.842068    1.573908    0.032181
  C      0.886735    0.187417   -0.048936
  C     -0.284776   -0.544481   -0.053095
  H     -1.330835   -1.012761    2.487721
  H     -2.509970   -2.727272    4.152610
  C      2.123378    2.318336    0.038481
  O      3.214050    1.813451   -0.011521
  O    -14.494921   -6.929865    1.127914
  C     -4.600057   -4.409693    4.407061
  C     -3.575019   -5.344089    4.506210
  C     -3.255890   -5.914467    5.727482
  C     -3.957415   -5.554297    6.867020
  C     -4.977672   -4.620594    6.778310
  C     -5.297179   -4.052689    5.555882
  C     -3.604425   -0.615799   -1.113313
  N     -4.816337   -1.203911   -1.267414
  C     -5.237433   -0.866742   -2.511936
  C     -4.238643   -0.052678   -3.187683
  C     -3.227771    0.107055   -2.318151
  H     -4.310252    0.321819   -4.194297
  H     -2.304060    0.639009   -2.469790
  O      1.959649    3.654541    0.111179
  H     -3.710432   -6.000390    7.821564
  H     -7.483191    0.689251   -8.001142
  H     -6.523854   -2.641620   -0.694952
  H     -4.891159   -2.381783    0.688542
  H     -2.460403   -6.645962    5.787381
  H     -3.032512   -5.629662    3.614036
  H     -6.094991   -3.324466    5.486146
  H     -5.527955   -4.332598    7.664619
  H    -11.578836   -7.543398   -1.439092
  H     -9.470751   -6.262359   -1.546634
  H    -10.773911   -3.834389    1.712861
  H    -12.892056   -5.120541    1.816580
  H     -7.068349   -1.725385   -7.673608
  H     -6.602319   -2.602831   -5.417214
  H     -6.974294    1.328673   -3.802562
  H     -7.436969    2.215678   -6.055483
  H      1.849074   -0.301906   -0.111701
  H     -0.249557   -1.623672   -0.121873
  H     -2.512136    1.983659    0.162420
  H     -0.421411    3.297694    0.172537
  H    -14.597110   -8.589592   -0.414729
  H      2.843904    4.047201    0.111449

----------------------------
CARTESIAN COORDINATES (A.U.)
----------------------------
  NO LB      ZA    FRAG     MASS         X           Y           Z
   0 C     6.0000    0    12.011  -13.220748    1.248944   -8.794795
   1 C     6.0000    0    12.011  -12.769624   -1.314359   -8.427596
   2 C     6.0000    0    12.011  -12.836067   -2.922895  -10.505287
   3 C     6.0000    0    12.011  -13.327501   -1.987657  -12.900212
   4 C     6.0000    0    12.011  -13.763780    0.570629  -13.248111
   5 C     6.0000    0    12.011  -13.711393    2.186879  -11.188245
   6 C     6.0000    0    12.011  -12.193914   -2.319627   -5.859356
   7 C     6.0000    0    12.011  -14.008291   -3.874225   -4.761921
   8 N     7.0000    0    14.007  -13.821015   -5.111117   -2.501987
   9 C     6.0000    0    12.011  -15.968633   -6.462311   -2.022560
  10 C     6.0000    0    12.011  -17.631812   -6.025588   -4.102743
  11 C     6.0000    0    12.011  -16.442816   -4.467388   -5.762483
  12 C     6.0000    0    12.011  -16.425254   -7.972590    0.080047
  13 C     6.0000    0    12.011  -18.862537   -9.380801    0.144056
  14 C     6.0000    0    12.011  -19.321126  -11.349209   -1.537971
  15 C     6.0000    0    12.011  -21.547948  -12.711680   -1.424544
  16 C     6.0000    0    12.011  -23.360928  -12.110844    0.378223
  17 C     6.0000    0    12.011  -22.930263  -10.129748    2.047443
  18 C     6.0000    0    12.011  -20.700289   -8.780364    1.929443
  19 C     6.0000    0    12.011  -25.762138  -13.531848    0.607408
  20 O     8.0000    0    15.999  -25.973751  -15.422072   -1.087831
  21 H     1.0000    0     1.008  -19.503497   -6.803697   -4.266849
  22 H     1.0000    0     1.008  -17.169193   -3.748519   -7.520294
  23 C     6.0000    0    12.011  -14.774479   -8.288990    2.118639
  24 C     6.0000    0    12.011  -15.247026  -10.053026    4.175449
  25 C     6.0000    0    12.011  -13.279231   -9.845605    5.763958
  26 C     6.0000    0    12.011  -11.606210   -7.951812    4.683372
  27 N     7.0000    0    14.007  -12.547368   -7.072408    2.466806
  28 H     1.0000    0     1.008  -16.851533  -11.293197    4.335739
  29 C     6.0000    0    12.011   -9.352500   -7.201068    5.832464
  30 C     6.0000    0    12.011   -7.642671   -5.476062    4.830180
  31 N     7.0000    0    14.007   -7.796841   -4.300736    2.535856
  32 C     6.0000    0    12.011   -5.761225   -2.755245    2.169480
  33 C     6.0000    0    12.011   -4.244682   -2.937778    4.394922
  34 C     6.0000    0    12.011   -5.379607   -4.588954    6.000537
  35 H     1.0000    0     1.008  -12.947817  -10.875473    7.486874
  36 C     6.0000    0    12.011   -5.264505   -1.310875    0.031347
  37 C     6.0000    0    12.011   -2.872030    0.176693    0.039530
  38 C     6.0000    0    12.011   -2.939519    2.800765    0.190266
  39 C     6.0000    0    12.011   -0.730257    4.194838    0.201864
  40 C     6.0000    0    12.011    1.591277    2.974256    0.060814
  41 C     6.0000    0    12.011    1.675686    0.354167   -0.092476
  42 C     6.0000    0    12.011   -0.538150   -1.028920   -0.100335
  43 H     1.0000    0     1.008   -2.514914   -1.913840    4.701111
  44 H     1.0000    0     1.008   -4.743157   -5.153797    7.847296
  45 C     6.0000    0    12.011    4.012603    4.381019    0.072718
  46 O     8.0000    0    15.999    6.073674    3.426926   -0.021771
  47 O     8.0000    0    15.999  -27.391431  -13.095548    2.131448
  48 C     6.0000    0    12.011   -8.692847   -8.333113    8.328138
  49 C     6.0000    0    12.011   -6.755807  -10.098865    8.515502
  50 C     6.0000    0    12.011   -6.152740  -11.176723   10.823372
  51 C     6.0000    0    12.011   -7.478431  -10.496101   12.976788
  52 C     6.0000    0    12.011   -9.406436   -8.731657   12.809150
  53 C     6.0000    0    12.011  -10.010217   -7.658472   10.499095
  54 C     6.0000    0    12.011   -6.811376   -1.163691   -2.103856
  55 N     7.0000    0    14.007   -9.101557   -2.275062   -2.395066
  56 C     6.0000    0    12.011   -9.897315   -1.637904   -4.746872
  57 C     6.0000    0    12.011   -8.009874   -0.099547   -6.023847
  58 C     6.0000    0    12.011   -6.099603    0.202305   -4.380670
  59 H     1.0000    0     1.008   -8.145195    0.608150   -7.926072
  60 H     1.0000    0     1.008   -4.354043    1.207553   -4.667226
  61 O     8.0000    0    15.999    3.703200    6.906082    0.210098
  62 H     1.0000    0     1.008   -7.011701  -11.339093   14.780614
  63 H     1.0000    0     1.008  -14.141182    1.302495  -15.119968
  64 H     1.0000    0     1.008  -12.328297   -4.991939   -1.313270
  65 H     1.0000    0     1.008   -9.242950   -4.500917    1.301156
  66 H     1.0000    0     1.008   -4.649488  -12.559048   10.936565
  67 H     1.0000    0     1.008   -5.730618  -10.638519    6.829539
  68 H     1.0000    0     1.008  -11.517863   -6.282330   10.367313
  69 H     1.0000    0     1.008  -10.446320   -8.187423   14.484030
  70 H     1.0000    0     1.008  -21.880829  -14.254956   -2.719490
  71 H     1.0000    0     1.008  -17.897125  -11.834143   -2.922715
  72 H     1.0000    0     1.008  -20.359741   -7.245946    3.236838
  73 H     1.0000    0     1.008  -24.362454   -9.676419    3.432838
  74 H     1.0000    0     1.008  -13.357244   -3.260505  -14.501017
  75 H     1.0000    0     1.008  -12.476574   -4.918638  -10.237051
  76 H     1.0000    0     1.008  -13.179505    2.510828   -7.185800
  77 H     1.0000    0     1.008  -14.053834    4.187025  -11.443204
  78 H     1.0000    0     1.008    3.494243   -0.570520   -0.211085
  79 H     1.0000    0     1.008   -0.471594   -3.068295   -0.230307
  80 H     1.0000    0     1.008   -4.747249    3.748572    0.306930
  81 H     1.0000    0     1.008   -0.796351    6.231738    0.326048
  82 H     1.0000    0     1.008  -27.584541  -16.231977   -0.783725
  83 H     1.0000    0     1.008    5.374199    7.648102    0.210608

--------------------------------
INTERNAL COORDINATES (ANGSTROEM)
--------------------------------
 C      0   0   0     0.000000000000     0.00000000     0.00000000
 C      1   0   0     1.390927701038     0.00000000     0.00000000
 C      2   1   0     1.390901080165   118.81853090     0.00000000
 C      3   2   1     1.385175472375   120.61851791     0.38667718
 C      4   3   2     1.385616235771   120.12738935   359.88561326
 C      1   2   3     1.384894399334   120.62691761   359.58881828
 C      2   1   3     1.490915445859   120.68869682   179.26793591
 C      7   2   1     1.391354103244   116.77145640   111.91758526
 N      8   7   2     1.366903945137   126.74595270   176.05588959
 C      9   8   7     1.366449838817   110.65280725   179.88056257
 C     10   9   8     1.428195854450   106.54405655   359.29336059
 C     11  10   9     1.359113739104   108.11763329     0.61824680
 C     10   9   8     1.391082106839   126.41286708   179.02457984
 C     13  10   9     1.489941940515   117.12241168   183.02693849
 C     14  13  10     1.391459355262   120.71952935    68.19941447
 C     15  14  13     1.382756508061   120.74283880   177.82957321
 C     16  15  14     1.389820281346   119.91941389     0.27992209
 C     17  16  15     1.389682942748   119.71407056     0.43039860
 C     18  17  16     1.380690292684   120.10357397   359.39760194
 C     17  16  15     1.481468251980   122.15050431   180.90847316
 O     20  17  16     1.348266623204   113.16219776     0.04976816
 H     11  10   9     1.076142468430   124.57311350   181.27854771
 H     12  11  10     1.075974349679   127.42955707   180.65756077
 C     13  10   9     1.398172435314   125.26816693     2.43324863
 C     24  13  10     1.455534644940   123.12174299   185.26769218
 C     25  24  13     1.342755467858   106.40785129   179.88965402
 C     26  25  24     1.454334176070   106.39580285     0.12824359
 N     24  13  10     1.355491105818   126.24335744     4.39695583
 H     25  24  13     1.076476757695   125.83245580     1.07811874
 C     27  26  25     1.396389762757   123.00701937   179.26464342
 C     30  27  26     1.390411227495   125.20133801   177.32391095
 N     31  30  27     1.366576941054   126.78727296   357.11995000
 C     32  31  30     1.366313312029   110.57430733   180.83099445
 C     33  32  31     1.428367682067   106.58802789   359.05107110
 C     34  33  32     1.358701881842   108.10265978     0.73851036
 H     26  25  24     1.076573451678   127.96073725   181.06493700
 C     33  32  31     1.390492645975   126.40746225   178.50229935
 C     37  33  32     1.490820962350   116.64202301   181.74300271
 C     38  37  33     1.391346748135   120.35448063   249.47029524
 C     39  38  37     1.382399932456   120.73971103   179.92650153
 C     40  39  38     1.389958099644   119.94987400     0.02713082
 C     41  40  39     1.389580072820   119.68331584     0.02979066
 C     42  41  40     1.381351402223   120.10450034   359.89498421
 H     34  33  32     1.075974623271   124.61598776   181.05221861
 H     35  34  33     1.076018589229   127.46210986   180.28466101
 C     41  40  39     1.481879973102   122.04243209   180.14702776
 O     46  41  40     1.202901734725   124.95652766   179.29268807
 O     20  17  16     1.202950792128   124.90413920   179.90358960
 C     30  27  26     1.491590780106   118.11029595   357.67558895
 C     49  30  27     1.390549208983   120.36561982   107.69057591
 C     50  49  30     1.385164282662   120.62353495   180.69724121
 C     51  50  49     1.385787924365   120.08980994   359.85449433
 C     52  51  50     1.385855165138   119.67973298   359.93422870
 C     53  52  51     1.385255153448   120.16535673     0.17405546
 C     37  33  32     1.397425467165   125.29837279     1.30531674
 N     55  37  33     1.355859021761   126.24944685     3.99781379
 C     56  55  37     1.356407137358   105.89947987   180.36086334
 C     57  56  55     1.454962152239   110.61563138     1.22313869
 C     58  57  56     1.342930760621   106.41310251   359.01064013
 H     58  57  56     1.076405244133   125.68456518   178.02164532
 H     59  58  57     1.076666428158   127.83379049   178.96518522
 O     46  41  40     1.348161045842   113.14870649   359.47284371
 H     52  51  50     1.082198054302   120.17471014   179.88875759
 H      5   4   3     1.082152251227   120.13452455   179.78335903
 H      9   8   7     1.011747490164   124.80016602     2.07151150
 H     32  31  30     1.011793077493   124.83484998     2.64742671
 H     51  50  49     1.082345675647   119.76337056   179.53522195
 H     50  49  30     1.082514915926   119.20434887     0.12532342
 H     54  53  52     1.082439787252   120.17610607   179.91045182
 H     53  52  51     1.082264137039   120.07844312   180.16626408
 H     16  15  14     1.080531899652   120.36357435   180.86196419
 H     15  14  13     1.081964107985   119.29560779   359.01793893
 H     19  18  17     1.081865908601   120.10635018   180.39965767
 H     18  17  16     1.081387372408   118.90322196   179.63595559
 H      4   3   2     1.082371518266   119.76556066   179.47990670
 H      3   2   1     1.082445528299   119.27383783   179.65693245
 H      1   2   3     1.082282619572   119.23089783   179.75804350
 H      6   1   2     1.082274420174   119.72887578   180.15847791
 H     42  41  40     1.081421822042   118.91220356   179.68273277
 H     43  42  41     1.081953586256   120.07105542   179.65654230
 H     39  38  37     1.081884249412   119.25180413     0.17723823
 H     40  39  38     1.080448850443   120.34936160   180.21936200
 H     21  20  17     0.967551506260   106.92560298   179.76609254
 H     62  46  41     0.967516462220   106.93366118   179.86772487

---------------------------
INTERNAL COORDINATES (A.U.)
---------------------------
 C      0   0   0     0.000000000000     0.00000000     0.00000000
 C      1   0   0     2.628472427046     0.00000000     0.00000000
 C      2   1   0     2.628422120887   118.81853090     0.00000000
 C      3   2   1     2.617602290214   120.61851791     0.38667718
 C      4   3   2     2.618435212322   120.12738935   359.88561326
 C      1   2   3     2.617071139143   120.62691761   359.58881828
 C      2   1   3     2.817421881507   120.68869682   179.26793591
 C      7   2   1     2.629278210439   116.77145640   111.91758526
 N      8   7   2     2.583074107685   126.74595270   176.05588959
 C      9   8   7     2.582215971105   110.65280725   179.88056257
 C     10   9   8     2.698899030512   106.54405655   359.29336059
 C     11  10   9     2.568352751757   108.11763329     0.61824680
 C     10   9   8     2.628764211723   126.41286708   179.02457984
 C     13  10   9     2.815582223016   117.12241168   183.02693849
 C     14  13  10     2.629477107929   120.71952935    68.19941447
 C     15  14  13     2.613031110132   120.74283880   177.82957321
 C     16  15  14     2.626379707114   119.91941389     0.27992209
 C     17  16  15     2.626120174776   119.71407056     0.43039860
 C     18  17  16     2.609126528936   120.10357397   359.39760194
 C     17  16  15     2.799569272340   122.15050431   180.90847316
 O     20  17  16     2.547854673362   113.16219776     0.04976816
 H     11  10   9     2.033614546414   124.57311350   181.27854771
 H     12  11  10     2.033296848018   127.42955707   180.65756077
 C     13  10   9     2.642162990741   125.26816693     2.43324863
 C     24  13  10     2.750561857370   123.12174299   185.26769218
 C     25  24  13     2.537440099078   106.40785129   179.88965402
 C     26  25  24     2.748293299974   106.39580285     0.12824359
 N     24  13  10     2.561506966962   126.24335744     4.39695583
 H     25  24  13     2.034246261575   125.83245580     1.07811874
 C     27  26  25     2.638794227822   123.00701937   179.26464342
 C     30  27  26     2.627496433496   125.20133801   177.32391095
 N     31  30  27     2.582456159524   126.78727296   357.11995000
 C     32  31  30     2.581957972865   110.57430733   180.83099445
 C     33  32  31     2.699223737650   106.58802789   359.05107110
 C     34  33  32     2.567574454324   108.10265978     0.73851036
 H     26  25  24     2.034428986722   127.96073725   181.06493700
 C     33  32  31     2.627650292124   126.40746225   178.50229935
 C     37  33  32     2.817243333550   116.64202301   181.74300271
 C     38  37  33     2.629264311297   120.35448063   249.47029524
 C     39  38  37     2.612357279893   120.73971103   179.92650153
 C     40  39  38     2.626640145952   119.94987400     0.02713082
 C     41  40  39     2.625925778784   119.68331584     0.02979066
 C     42  41  40     2.610375844910   120.10450034   359.89498421
 H     34  33  32     2.033297365031   124.61598776   181.05221861
 H     35  34  33     2.033380448650   127.46210986   180.28466101
 C     41  40  39     2.800347312505   122.04243209   180.14702776
 O     46  41  40     2.273154844649   124.95652766   179.29268807
 O     20  17  16     2.273247549706   124.90413920   179.90358960
 C     30  27  26     2.818698078282   118.11029595   357.67558895
 C     49  30  27     2.627757180719   120.36561982   107.69057591
 C     50  49  30     2.617581144721   120.62353495   180.69724121
 C     51  50  49     2.618759656744   120.08980994   359.85449433
 C     52  51  50     2.618886723391   119.67973298   359.93422870
 C     53  52  51     2.617752865620   120.16535673     0.17405546
 C     37  33  32     2.640751425510   125.29837279     1.30531674
 N     55  37  33     2.562202227335   126.24944685     3.99781379
 C     56  55  37     2.563238015703   105.89947987   180.36086334
 C     57  56  55     2.749480002953   110.61563138     1.22313869
 C     58  57  56     2.537771354392   106.41310251   359.01064013
 H     58  57  56     2.034111120527   125.68456518   178.02164532
 H     59  58  57     2.034604686806   127.83379049   178.96518522
 O     46  41  40     2.547655161062   113.14870649   359.47284371
 H     52  51  50     2.045057945293   120.17471014   179.88875759
 H      5   4   3     2.044971390025   120.13452455   179.78335903
 H      9   8   7     1.911925673092   124.80016602     2.07151150
 H     32  31  30     1.912011820659   124.83484998     2.64742671
 H     51  50  49     2.045336909207   119.76337056   179.53522195
 H     50  49  30     2.045656726985   119.20434887     0.12532342
 H     54  53  52     2.045514754367   120.17610607   179.91045182
 H     53  52  51     2.045182823569   120.07844312   180.16626408
 H     16  15  14     2.041909369308   120.36357435   180.86196419
 H     15  14  13     2.044615850823   119.29560779   359.01793893
 H     19  18  17     2.044430280881   120.10635018   180.39965767
 H     18  17  16     2.043525978532   118.90322196   179.63595559
 H      4   3   2     2.045385744679   119.76556066   179.47990670
 H      3   2   1     2.045525603373   119.27383783   179.65693245
 H      1   2   3     2.045217750494   119.23089783   179.75804350
 H      6   1   2     2.045202255878   119.72887578   180.15847791
 H     42  41  40     2.043591078906   118.91220356   179.68273277
 H     43  42  41     2.044595967637   120.07105542   179.65654230
 H     39  38  37     2.044464939991   119.25180413     0.17723823
 H     40  39  38     2.041752429047   120.34936160   180.21936200
 H     21  20  17     1.828407367295   106.92560298   179.76609254
 H     62  46  41     1.828341143655   106.93366118   179.86772487

---------------------
BASIS SET INFORMATION
---------------------
There are 4 groups of distinct atoms

 Group   1 Type C   : 11s6p1d contracted to 5s3p1d pattern {62111/411/1}
 Group   2 Type N   : 11s6p1d contracted to 5s3p1d pattern {62111/411/1}
 Group   3 Type O   : 11s6p1d contracted to 5s3p1d pattern {62111/411/1}
 Group   4 Type H   : 5s1p contracted to 3s1p pattern {311/1}

Atom   0C    basis set group =>   1
Atom   1C    basis set group =>   1
Atom   2C    basis set group =>   1
Atom   3C    basis set group =>   1
Atom   4C    basis set group =>   1
Atom   5C    basis set group =>   1
Atom   6C    basis set group =>   1
Atom   7C    basis set group =>   1
Atom   8N    basis set group =>   2
Atom   9C    basis set group =>   1
Atom  10C    basis set group =>   1
Atom  11C    basis set group =>   1
Atom  12C    basis set group =>   1
Atom  13C    basis set group =>   1
Atom  14C    basis set group =>   1
Atom  15C    basis set group =>   1
Atom  16C    basis set group =>   1
Atom  17C    basis set group =>   1
Atom  18C    basis set group =>   1
Atom  19C    basis set group =>   1
Atom  20O    basis set group =>   3
Atom  21H    basis set group =>   4
Atom  22H    basis set group =>   4
Atom  23C    basis set group =>   1
Atom  24C    basis set group =>   1
Atom  25C    basis set group =>   1
Atom  26C    basis set group =>   1
Atom  27N    basis set group =>   2
Atom  28H    basis set group =>   4
Atom  29C    basis set group =>   1
Atom  30C    basis set group =>   1
Atom  31N    basis set group =>   2
Atom  32C    basis set group =>   1
Atom  33C    basis set group =>   1
Atom  34C    basis set group =>   1
Atom  35H    basis set group =>   4
Atom  36C    basis set group =>   1
Atom  37C    basis set group =>   1
Atom  38C    basis set group =>   1
Atom  39C    basis set group =>   1
Atom  40C    basis set group =>   1
Atom  41C    basis set group =>   1
Atom  42C    basis set group =>   1
Atom  43H    basis set group =>   4
Atom  44H    basis set group =>   4
Atom  45C    basis set group =>   1
Atom  46O    basis set group =>   3
Atom  47O    basis set group =>   3
Atom  48C    basis set group =>   1
Atom  49C    basis set group =>   1
Atom  50C    basis set group =>   1
Atom  51C    basis set group =>   1
Atom  52C    basis set group =>   1
Atom  53C    basis set group =>   1
Atom  54C    basis set group =>   1
Atom  55N    basis set group =>   2
Atom  56C    basis set group =>   1
Atom  57C    basis set group =>   1
Atom  58C    basis set group =>   1
Atom  59H    basis set group =>   4
Atom  60H    basis set group =>   4
Atom  61O    basis set group =>   3
Atom  62H    basis set group =>   4
Atom  63H    basis set group =>   4
Atom  64H    basis set group =>   4
Atom  65H    basis set group =>   4
Atom  66H    basis set group =>   4
Atom  67H    basis set group =>   4
Atom  68H    basis set group =>   4
Atom  69H    basis set group =>   4
Atom  70H    basis set group =>   4
Atom  71H    basis set group =>   4
Atom  72H    basis set group =>   4
Atom  73H    basis set group =>   4
Atom  74H    basis set group =>   4
Atom  75H    basis set group =>   4
Atom  76H    basis set group =>   4
Atom  77H    basis set group =>   4
Atom  78H    basis set group =>   4
Atom  79H    basis set group =>   4
Atom  80H    basis set group =>   4
Atom  81H    basis set group =>   4
Atom  82H    basis set group =>   4
Atom  83H    basis set group =>   4
-------------------------------
AUXILIARY BASIS SET INFORMATION
-------------------------------
There are 4 groups of distinct atoms

 Group   1 Type C   : 12s5p4d2f1g contracted to 6s4p3d1f1g pattern {711111/2111/211/2/1}
 Group   2 Type N   : 12s5p4d2f1g contracted to 6s4p3d1f1g pattern {711111/2111/211/2/1}
 Group   3 Type O   : 12s5p4d2f1g contracted to 6s4p3d1f1g pattern {711111/2111/211/2/1}
 Group   4 Type H   : 5s2p1d contracted to 3s1p1d pattern {311/2/1}

Atom   0C    basis set group =>   1
Atom   1C    basis set group =>   1
Atom   2C    basis set group =>   1
Atom   3C    basis set group =>   1
Atom   4C    basis set group =>   1
Atom   5C    basis set group =>   1
Atom   6C    basis set group =>   1
Atom   7C    basis set group =>   1
Atom   8N    basis set group =>   2
Atom   9C    basis set group =>   1
Atom  10C    basis set group =>   1
Atom  11C    basis set group =>   1
Atom  12C    basis set group =>   1
Atom  13C    basis set group =>   1
Atom  14C    basis set group =>   1
Atom  15C    basis set group =>   1
Atom  16C    basis set group =>   1
Atom  17C    basis set group =>   1
Atom  18C    basis set group =>   1
Atom  19C    basis set group =>   1
Atom  20O    basis set group =>   3
Atom  21H    basis set group =>   4
Atom  22H    basis set group =>   4
Atom  23C    basis set group =>   1
Atom  24C    basis set group =>   1
Atom  25C    basis set group =>   1
Atom  26C    basis set group =>   1
Atom  27N    basis set group =>   2
Atom  28H    basis set group =>   4
Atom  29C    basis set group =>   1
Atom  30C    basis set group =>   1
Atom  31N    basis set group =>   2
Atom  32C    basis set group =>   1
Atom  33C    basis set group =>   1
Atom  34C    basis set group =>   1
Atom  35H    basis set group =>   4
Atom  36C    basis set group =>   1
Atom  37C    basis set group =>   1
Atom  38C    basis set group =>   1
Atom  39C    basis set group =>   1
Atom  40C    basis set group =>   1
Atom  41C    basis set group =>   1
Atom  42C    basis set group =>   1
Atom  43H    basis set group =>   4
Atom  44H    basis set group =>   4
Atom  45C    basis set group =>   1
Atom  46O    basis set group =>   3
Atom  47O    basis set group =>   3
Atom  48C    basis set group =>   1
Atom  49C    basis set group =>   1
Atom  50C    basis set group =>   1
Atom  51C    basis set group =>   1
Atom  52C    basis set group =>   1
Atom  53C    basis set group =>   1
Atom  54C    basis set group =>   1
Atom  55N    basis set group =>   2
Atom  56C    basis set group =>   1
Atom  57C    basis set group =>   1
Atom  58C    basis set group =>   1
Atom  59H    basis set group =>   4
Atom  60H    basis set group =>   4
Atom  61O    basis set group =>   3
Atom  62H    basis set group =>   4
Atom  63H    basis set group =>   4
Atom  64H    basis set group =>   4
Atom  65H    basis set group =>   4
Atom  66H    basis set group =>   4
Atom  67H    basis set group =>   4
Atom  68H    basis set group =>   4
Atom  69H    basis set group =>   4
Atom  70H    basis set group =>   4
Atom  71H    basis set group =>   4
Atom  72H    basis set group =>   4
Atom  73H    basis set group =>   4
Atom  74H    basis set group =>   4
Atom  75H    basis set group =>   4
Atom  76H    basis set group =>   4
Atom  77H    basis set group =>   4
Atom  78H    basis set group =>   4
Atom  79H    basis set group =>   4
Atom  80H    basis set group =>   4
Atom  81H    basis set group =>   4
Atom  82H    basis set group =>   4
Atom  83H    basis set group =>   4


           ************************************************************
           *        Program running with 16 parallel MPI-processes    *
           *              working on a common directory               *
           ************************************************************
------------------------------------------------------------------------------
                           ORCA GTO INTEGRAL CALCULATION
                           -- RI-GTO INTEGRALS CHOSEN --
------------------------------------------------------------------------------

                         BASIS SET STATISTICS AND STARTUP INFO

Gaussian basis set:
 # of primitive gaussian shells          ... 1152
 # of primitive gaussian functions       ... 2076
 # of contracted shells                  ...  606
 # of contracted basis functions         ... 1206
 Highest angular momentum                ...    2
 Maximum contraction depth               ...    6
Auxiliary gaussian basis set:
 # of primitive gaussian shells          ... 1536
 # of primitive gaussian functions       ... 4260
 # of contracted shells                  ...  960
 # of contracted aux-basis functions     ... 2976
 Highest angular momentum                ...    4
 Maximum contraction depth               ...    7
Ratio of auxiliary to basis functions    ...  2.47
Integral package used                  ... LIBINT
 One Electron integrals                  ... done
 Ordering auxiliary basis shells         ... done
 Integral threshhold             Thresh  ...  1.000e-11
 Primitive cut-off               TCut    ...  1.000e-12
 Pre-screening matrix                    ... done
 Shell pair data                         ... 
 Ordering of the shell pairs             ... done (   0.020 sec) 82831 of 183921 pairs
 Determination of significant pairs      ... done (   0.000 sec)
 Creation of shell pair data             ... done (   0.016 sec)
 Storage of shell pair data              ... done (   0.014 sec)
 Shell pair data done in (   0.051 sec)
 Computing two index integrals           ... done
 Cholesky decomposition of the V-matrix  ... done


Timings:
 Total evaluation time                   ...   2.975 sec (  0.050 min)
 One electron matrix time                ...   1.202 sec (  0.020 min) = 40.4%
 Schwartz matrix evaluation time         ...   1.011 sec (  0.017 min) = 34.0%
 Two index repulsion integral time       ...   0.313 sec (  0.005 min) = 10.5%
 Cholesky decomposition of V             ...   0.376 sec (  0.006 min) = 12.6%
 Three index repulsion integral time     ...   0.000 sec (  0.000 min) =  0.0%



           ************************************************************
           *        Program running with 16 parallel MPI-processes    *
           *              working on a common directory               *
           ************************************************************
-------------------------------------------------------------------------------
                                 ORCA SCF
-------------------------------------------------------------------------------

------------
SCF SETTINGS
------------
Hamiltonian:
 Density Functional     Method          .... DFT(GTOs)
 Exchange Functional    Exchange        .... B88
   X-Alpha parameter    XAlpha          ....  0.666667
   Becke's b parameter  XBeta           ....  0.004200
 Correlation Functional Correlation     .... LYP
 Gradients option       PostSCFGGA      .... off
   NL short-range parameter             ....  4.000000
 RI-approximation to the Coulomb term is turned on
   Number of auxiliary basis functions  .... 2976


General Settings:
 Integral files         IntName         .... ./orca
 Hartree-Fock type      HFTyp           .... RHF
 Total Charge           Charge          ....    0
 Multiplicity           Mult            ....    1
 Number of Electrons    NEL             ....  366
 Basis Dimension        Dim             .... 1206
 Nuclear Repulsion      ENuc            ....   6411.2851879720 Eh

Convergence Acceleration:
 DIIS                   CNVDIIS         .... on
   Start iteration      DIISMaxIt       ....    12
   Startup error        DIISStart       ....  0.200000
   # of expansion vecs  DIISMaxEq       ....     5
   Bias factor          DIISBfac        ....   1.050
   Max. coefficient     DIISMaxC        ....  10.000
 Newton-Raphson         CNVNR           .... off
 SOSCF                  CNVSOSCF        .... on
   Start iteration      SOSCFMaxIt      ....   150
   Startup grad/error   SOSCFStart      ....  0.003300
 Level Shifting         CNVShift        .... on
   Level shift para.    LevelShift      ....    0.2500
   Turn off err/grad.   ShiftErr        ....    0.0010
 Zerner damping         CNVZerner       .... off
 Static damping         CNVDamp         .... on
   Fraction old density DampFac         ....    0.7000
   Max. Damping (<1)    DampMax         ....    0.9800
   Min. Damping (>=0)   DampMin         ....    0.0000
   Turn off err/grad.   DampErr         ....    0.1000
 Fernandez-Rico         CNVRico         .... off

SCF Procedure:
 Maximum # iterations   MaxIter         ....   125
 SCF integral mode      SCFMode         .... Direct
   Integral package                     .... LIBINT
 Reset frequeny         DirectResetFreq ....    20
 Integral Threshold     Thresh          ....  1.000e-11 Eh
 Primitive CutOff       TCut            ....  1.000e-12 Eh

Convergence Tolerance:
 Convergence Check Mode ConvCheckMode   .... Total+1el-Energy
 Convergence forced     ConvForced      .... 0
 Energy Change          TolE            ....  1.000e-08 Eh
 1-El. energy change                    ....  1.000e-05 Eh
 Orbital Gradient       TolG            ....  2.500e-05
 Orbital Rotation angle TolX            ....  2.500e-05
 DIIS Error             TolErr          ....  1.000e-08


Diagonalization of the overlap matrix:
Smallest eigenvalue                        ... 4.412e-06
Time for diagonalization                   ...    0.222 sec
Threshold for overlap eigenvalues          ... 1.000e-08
Number of eigenvalues below threshold      ... 0
Time for construction of square roots      ...    0.200 sec
Total time needed                          ...    0.430 sec

-------------------
DFT GRID GENERATION
-------------------

General Integration Accuracy     IntAcc      ...  5.010
Radial Grid Type                 RadialGrid  ... Gauss-Chebyshev
Angular Grid (max. acc.)         AngularGrid ... Lebedev-434
Angular grid pruning method      GridPruning ... 3 (G Style)
Weight generation scheme         WeightScheme... Becke
Basis function cutoff            BFCut       ...    3.0000e-12
Integration weight cutoff        WCut        ...    1.0000e-14
Grids for H and He will be reduced by one unit

# of grid points (after initial pruning)     ... 778596 (   0.0 sec)
# of grid points (after weights+screening)   ... 661195 (   2.5 sec)
[...]
      dx2y2   :     0.009425
      dxy     :     0.011360
 53 C s       :     2.874101  s :     2.874101
      pz      :     1.068848  p :     3.107555
      px      :     1.030176
      py      :     1.008531
      dz2     :     0.024496  d :     0.075775
      dxz     :     0.021296
      dyz     :     0.016560
      dx2y2   :     0.004600
      dxy     :     0.008822
 54 C s       :     2.849532  s :     2.849532
      pz      :     1.042123  p :     3.027075
      px      :     0.999006
      py      :     0.985947
      dz2     :     0.026340  d :     0.124599
      dxz     :     0.035927
      dyz     :     0.017548
      dx2y2   :     0.022980
      dxy     :     0.021805
 55 N s       :     3.249767  s :     3.249767
      pz      :     1.324908  p :     3.914993
      px      :     1.247174
      py      :     1.342912
      dz2     :     0.015913  d :     0.048439
      dxz     :     0.007572
      dyz     :     0.007170
      dx2y2   :     0.007590
      dxy     :     0.010193
 56 C s       :     2.849914  s :     2.849914
      pz      :     1.001374  p :     3.026795
      px      :     1.035844
      py      :     0.989576
      dz2     :     0.031395  d :     0.124447
      dxz     :     0.037716
      dyz     :     0.022068
      dx2y2   :     0.016567
      dxy     :     0.016700
 57 C s       :     2.884301  s :     2.884301
      pz      :     1.060084  p :     3.114847
      px      :     1.051645
      py      :     1.003118
      dz2     :     0.016083  d :     0.075234
      dxz     :     0.024721
      dyz     :     0.010444
      dx2y2   :     0.010803
      dxy     :     0.013184
 58 C s       :     2.884091  s :     2.884091
      pz      :     1.044819  p :     3.118887
      px      :     1.066160
      py      :     1.007908
      dz2     :     0.018180  d :     0.075208
      dxz     :     0.021571
      dyz     :     0.014551
      dx2y2   :     0.010420
      dxy     :     0.010486
 59 H s       :     0.849711  s :     0.849711
      pz      :     0.035778  p :     0.063366
      px      :     0.011367
      py      :     0.016221
 60 H s       :     0.850792  s :     0.850792
      pz      :     0.011920  p :     0.063374
      px      :     0.032213
      py      :     0.019241
 61 O s       :     3.475523  s :     3.475523
      pz      :     1.748142  p :     4.633456
      px      :     1.509664
      py      :     1.375650
      dz2     :     0.003806  d :     0.021426
      dxz     :     0.000380
      dyz     :     0.002400
      dx2y2   :     0.010032
      dxy     :     0.004808
 62 H s       :     0.863127  s :     0.863127
      pz      :     0.032050  p :     0.058923
      px      :     0.011805
      py      :     0.015068
 63 H s       :     0.863179  s :     0.863179
      pz      :     0.031571  p :     0.058922
      px      :     0.013586
      py      :     0.013765
 64 H s       :     0.732298  s :     0.732298
      pz      :     0.041903  p :     0.119540
      px      :     0.054086
      py      :     0.023550
 65 H s       :     0.732314  s :     0.732314
      pz      :     0.042963  p :     0.119554
      px      :     0.052686
      py      :     0.023906
 66 H s       :     0.862515  s :     0.862515
      pz      :     0.009997  p :     0.058813
      px      :     0.027419
      py      :     0.021398
 67 H s       :     0.855330  s :     0.855330
      pz      :     0.027347  p :     0.059532
      px      :     0.019310
      py      :     0.012875
 68 H s       :     0.854263  s :     0.854263
      pz      :     0.009892  p :     0.059574
      px      :     0.028012
      py      :     0.021670
 69 H s       :     0.862357  s :     0.862357
      pz      :     0.026465  p :     0.058804
      px      :     0.019511
      py      :     0.012828
 70 H s       :     0.848928  s :     0.848928
      pz      :     0.023780  p :     0.060778
      px      :     0.011123
      py      :     0.025876
 71 H s       :     0.852290  s :     0.852290
      pz      :     0.024152  p :     0.059660
      px      :     0.023642
      py      :     0.011866
 72 H s       :     0.850785  s :     0.850785
      pz      :     0.023772  p :     0.059653
      px      :     0.010692
      py      :     0.025189
 73 H s       :     0.845120  s :     0.845120
      pz      :     0.024150  p :     0.061100
      px      :     0.025647
      py      :     0.011303
 74 H s       :     0.862611  s :     0.862611
      pz      :     0.027074  p :     0.058810
      px      :     0.012248
      py      :     0.019487
 75 H s       :     0.855405  s :     0.855405
      pz      :     0.009754  p :     0.059524
      px      :     0.013006
      py      :     0.036764
 76 H s       :     0.854305  s :     0.854305
      pz      :     0.028040  p :     0.059571
      px      :     0.012392
      py      :     0.019139
 77 H s       :     0.862454  s :     0.862454
      pz      :     0.009868  p :     0.058801
      px      :     0.012795
      py      :     0.036138
 78 H s       :     0.845257  s :     0.845257
      pz      :     0.011322  p :     0.061119
      px      :     0.034470
      py      :     0.015327
 79 H s       :     0.851948  s :     0.851948
      pz      :     0.012269  p :     0.059593
      px      :     0.009200
      py      :     0.038125
 80 H s       :     0.851118  s :     0.851118
      pz      :     0.012265  p :     0.059724
      px      :     0.031983
      py      :     0.015475
 81 H s       :     0.848782  s :     0.848782
      pz      :     0.011664  p :     0.060765
      px      :     0.009651
      py      :     0.039450
 82 H s       :     0.695699  s :     0.695699
      pz      :     0.032466  p :     0.149399
      px      :     0.077170
      py      :     0.039763
 83 H s       :     0.695677  s :     0.695677
      pz      :     0.037195  p :     0.149393
      px      :     0.080314
      py      :     0.031884


                      *****************************
                      * MAYER POPULATION ANALYSIS *
                      *****************************

  NA   - Mulliken gross atomic population
  ZA   - Total nuclear charge
  QA   - Mulliken gross atomic charge
  VA   - Mayer's total valence
  BVA  - Mayer's bonded valence
  FA   - Mayer's free valence

  ATOM       NA         ZA         QA         VA         BVA        FA
  0 C      6.0923     6.0000    -0.0923     3.7911     3.7911     0.0000
  1 C      6.1324     6.0000    -0.1324     3.8343     3.8343     0.0000
  2 C      6.1001     6.0000    -0.1001     3.7847     3.7847    -0.0000
  3 C      6.0629     6.0000    -0.0629     3.7494     3.7494    -0.0000
  4 C      6.1020     6.0000    -0.1020     3.7994     3.7994     0.0000
  5 C      6.0637     6.0000    -0.0637     3.7483     3.7483    -0.0000
  6 C      6.2239     6.0000    -0.2239     3.4286     3.4286     0.0000
  7 C      5.9148     6.0000     0.0852     4.2470     4.2470    -0.0000
  8 N      7.0128     7.0000    -0.0128     3.2511     3.2511    -0.0000
  9 C      5.9274     6.0000     0.0726     4.2834     4.2834    -0.0000
 10 C      6.1335     6.0000    -0.1335     3.7389     3.7389    -0.0000
 11 C      6.1466     6.0000    -0.1466     3.7627     3.7627     0.0000
 12 C      6.2128     6.0000    -0.2128     3.4020     3.4020    -0.0000
 13 C      6.0816     6.0000    -0.0816     3.7744     3.7744    -0.0000
 14 C      6.1011     6.0000    -0.1011     3.7135     3.7135    -0.0000
 15 C      6.0265     6.0000    -0.0265     3.6648     3.6648    -0.0000
 16 C      6.0787     6.0000    -0.0787     3.7475     3.7475    -0.0000
 17 C      6.0489     6.0000    -0.0489     3.7390     3.7390    -0.0000
 18 C      6.0967     6.0000    -0.0967     3.7381     3.7381    -0.0000
 19 C      5.8496     6.0000     0.1504     4.1309     4.1309    -0.0000
 20 O      8.2664     8.0000    -0.2664     2.0745     2.0745    -0.0000
 21 H      0.8408     1.0000     0.1592     0.9576     0.9576     0.0000
 22 H      0.8414     1.0000     0.1586     0.9584     0.9584     0.0000
 23 C      5.9467     6.0000     0.0533     4.2701     4.2701     0.0000
 24 C      6.1339     6.0000    -0.1339     3.7192     3.7192     0.0000
 25 C      6.1477     6.0000    -0.1477     3.7461     3.7461    -0.0000
 26 C      5.9334     6.0000     0.0666     4.2277     4.2277     0.0000
 27 N      7.1017     7.0000    -0.1017     2.9168     2.9168     0.0000
 28 H      0.8564     1.0000     0.1436     0.9627     0.9627    -0.0000
 29 C      6.2232     6.0000    -0.2232     3.4281     3.4281    -0.0000
 30 C      5.9154     6.0000     0.0846     4.2466     4.2466     0.0000
 31 N      7.0129     7.0000    -0.0129     3.2511     3.2511     0.0000
 32 C      5.9289     6.0000     0.0711     4.2877     4.2877    -0.0000
 33 C      6.1344     6.0000    -0.1344     3.7396     3.7396    -0.0000
 34 C      6.1462     6.0000    -0.1462     3.7633     3.7633     0.0000
 35 H      0.8574     1.0000     0.1426     0.9638     0.9638     0.0000
 36 C      6.2127     6.0000    -0.2127     3.4020     3.4020     0.0000
 37 C      6.0812     6.0000    -0.0812     3.7732     3.7732     0.0000
 38 C      6.0936     6.0000    -0.0936     3.7198     3.7198     0.0000
 39 C      6.0273     6.0000    -0.0273     3.6630     3.6630     0.0000
 40 C      6.0789     6.0000    -0.0789     3.7479     3.7479     0.0000
 41 C      6.0479     6.0000    -0.0479     3.7403     3.7403     0.0000
 42 C      6.1052     6.0000    -0.1052     3.7323     3.7323     0.0000
 43 H      0.8400     1.0000     0.1600     0.9574     0.9574     0.0000
 44 H      0.8412     1.0000     0.1588     0.9584     0.9584     0.0000
 45 C      5.8496     6.0000     0.1504     4.1310     4.1310     0.0000
 46 O      8.2826     8.0000    -0.2826     2.1643     2.1643     0.0000
 47 O      8.2822     8.0000    -0.2822     2.1647     2.1647    -0.0000
 48 C      6.1317     6.0000    -0.1317     3.8325     3.8325    -0.0000
 49 C      6.1005     6.0000    -0.1005     3.7851     3.7851    -0.0000
 50 C      6.0630     6.0000    -0.0630     3.7499     3.7499    -0.0000
 51 C      6.1020     6.0000    -0.1020     3.7993     3.7993     0.0000
 52 C      6.0637     6.0000    -0.0637     3.7485     3.7485    -0.0000
 53 C      6.0929     6.0000    -0.0929     3.7913     3.7913     0.0000
 54 C      5.9450     6.0000     0.0550     4.2643     4.2643     0.0000
 55 N      7.1015     7.0000    -0.1015     2.9169     2.9169    -0.0000
 56 C      5.9330     6.0000     0.0670     4.2270     4.2270     0.0000
 57 C      6.1482     6.0000    -0.1482     3.7453     3.7453    -0.0000
 58 C      6.1330     6.0000    -0.1330     3.7176     3.7176     0.0000
 59 H      0.8579     1.0000     0.1421     0.9640     0.9640    -0.0000
 60 H      0.8570     1.0000     0.1430     0.9627     0.9627     0.0000
 61 O      8.2659     8.0000    -0.2659     2.0750     2.0750     0.0000
 62 H      0.8972     1.0000     0.1028     0.9654     0.9654    -0.0000
 63 H      0.8974     1.0000     0.1026     0.9654     0.9654     0.0000
 64 H      0.6837     1.0000     0.3163     0.9148     0.9148     0.0000
 65 H      0.6833     1.0000     0.3167     0.9143     0.9143    -0.0000
 66 H      0.9003     1.0000     0.0997     0.9646     0.9646    -0.0000
 67 H      0.8875     1.0000     0.1125     0.9676     0.9676     0.0000
 68 H      0.8872     1.0000     0.1128     0.9704     0.9704    -0.0000
 69 H      0.9000     1.0000     0.1000     0.9646     0.9646     0.0000
 70 H      0.8741     1.0000     0.1259     0.9768     0.9768    -0.0000
 71 H      0.8820     1.0000     0.1180     0.9679     0.9679    -0.0000
 72 H      0.8812     1.0000     0.1188     0.9709     0.9709    -0.0000
 73 H      0.8689     1.0000     0.1311     0.9788     0.9788    -0.0000
 74 H      0.9006     1.0000     0.0994     0.9646     0.9646    -0.0000
 75 H      0.8879     1.0000     0.1121     0.9678     0.9678    -0.0000
 76 H      0.8875     1.0000     0.1125     0.9704     0.9704    -0.0000
 77 H      0.9002     1.0000     0.0998     0.9646     0.9646    -0.0000
 78 H      0.8692     1.0000     0.1308     0.9790     0.9790     0.0000
 79 H      0.8815     1.0000     0.1185     0.9680     0.9680     0.0000
 80 H      0.8818     1.0000     0.1182     0.9709     0.9709     0.0000
 81 H      0.8738     1.0000     0.1262     0.9766     0.9766     0.0000
 82 H      0.7210     1.0000     0.2790     0.9622     0.9622    -0.0000
 83 H      0.7210     1.0000     0.2790     0.9622     0.9622     0.0000

  Mayer bond orders larger than 0.1
B(  0-C ,  1-C ) :   1.4262 B(  0-C ,  5-C ) :   1.3480 B(  0-C , 76-H ) :   0.9753 
B(  1-C ,  2-C ) :   1.4121 B(  1-C ,  6-C ) :   0.8481 B(  2-C ,  3-C ) :   1.3480 
B(  2-C , 75-H ) :   0.9767 B(  3-C ,  4-C ) :   1.3814 B(  3-C , 74-H ) :   0.9680 
B(  4-C ,  5-C ) :   1.3805 B(  4-C , 63-H ) :   0.9666 B(  5-C , 77-H ) :   0.9673 
B(  6-C ,  7-C ) :   1.2952 B(  6-C , 56-C ) :   1.2781 B(  7-C ,  8-N ) :   1.2232 
B(  7-C , 11-C ) :   1.2867 B(  7-C , 56-C ) :   0.1209 B(  8-N ,  9-C ) :   1.2265 
B(  8-N , 64-H ) :   0.8074 B(  9-C , 10-C ) :   1.2840 B(  9-C , 12-C ) :   1.2989 
B(  9-C , 23-C ) :   0.1267 B( 10-C , 11-C ) :   1.4950 B( 10-C , 21-H ) :   0.9069 
B( 11-C , 22-H ) :   0.9106 B( 12-C , 13-C ) :   0.8398 B( 12-C , 14-C ) :  -0.1084 
B( 12-C , 18-C ) :  -0.1075 B( 12-C , 23-C ) :   1.2846 B( 13-C , 14-C ) :   1.3887 
B( 13-C , 18-C ) :   1.3918 B( 14-C , 15-C ) :   1.3041 B( 14-C , 71-H ) :   0.9828 
B( 15-C , 16-C ) :   1.3330 B( 15-C , 70-H ) :   0.9657 B( 16-C , 17-C ) :   1.4028 
B( 16-C , 19-C ) :   0.9918 B( 17-C , 18-C ) :   1.3250 B( 17-C , 73-H ) :   0.9562 
B( 18-C , 72-H ) :   0.9857 B( 19-C , 20-O ) :   1.1579 B( 19-C , 47-O ) :   2.0357 
B( 20-O , 82-H ) :   0.8917 B( 23-C , 24-C ) :   1.1462 B( 23-C , 26-C ) :   0.1185 
B( 23-C , 27-N ) :   1.4034 B( 24-C , 25-C ) :   1.6136 B( 24-C , 28-H ) :   0.9087 
B( 25-C , 26-C ) :   1.1497 B( 25-C , 35-H ) :   0.9135 B( 26-C , 27-N ) :   1.3999 
B( 26-C , 29-C ) :   1.2780 B( 26-C , 30-C ) :   0.1208 B( 29-C , 30-C ) :   1.2945 
B( 29-C , 48-C ) :   0.8482 B( 30-C , 31-N ) :   1.2231 B( 30-C , 34-C ) :   1.2870 
B( 31-N , 32-C ) :   1.2266 B( 31-N , 65-H ) :   0.8073 B( 32-C , 33-C ) :   1.2841 
B( 32-C , 36-C ) :   1.3010 B( 32-C , 54-C ) :   0.1267 B( 33-C , 34-C ) :   1.4956 
B( 33-C , 43-H ) :   0.9062 B( 34-C , 44-H ) :   0.9107 B( 36-C , 37-C ) :   0.8402 
B( 36-C , 38-C ) :  -0.1043 B( 36-C , 42-C ) :  -0.1113 B( 36-C , 54-C ) :   1.2819 
B( 37-C , 38-C ) :   1.4023 B( 37-C , 42-C ) :   1.3779 B( 38-C , 39-C ) :   1.3035 
B( 38-C , 80-H ) :   0.9823 B( 39-C , 40-C ) :   1.3323 B( 39-C , 81-H ) :   0.9650 
B( 40-C , 41-C ) :   1.4034 B( 40-C , 45-C ) :   0.9919 B( 41-C , 42-C ) :   1.3254 
B( 41-C , 78-H ) :   0.9569 B( 42-C , 79-H ) :   0.9867 B( 45-C , 46-O ) :   2.0351 
B( 45-C , 61-O ) :   1.1584 B( 48-C , 49-C ) :   1.4117 B( 48-C , 53-C ) :   1.4257 
B( 49-C , 50-C ) :   1.3483 B( 49-C , 67-H ) :   0.9767 B( 50-C , 51-C ) :   1.3813 
B( 50-C , 66-H ) :   0.9680 B( 51-C , 52-C ) :   1.3805 B( 51-C , 62-H ) :   0.9665 
B( 52-C , 53-C ) :   1.3482 B( 52-C , 69-H ) :   0.9673 B( 53-C , 68-H ) :   0.9754 
B( 54-C , 55-N ) :   1.4037 B( 54-C , 56-C ) :   0.1183 B( 54-C , 58-C ) :   1.1459 
B( 55-N , 56-C ) :   1.4001 B( 56-C , 57-C ) :   1.1496 B( 57-C , 58-C ) :   1.6126 
B( 57-C , 59-H ) :   0.9136 B( 58-C , 60-H ) :   0.9093 B( 61-O , 83-H ) :   0.8916 


-------
TIMINGS
-------

Total SCF time: 0 days 0 hours 1 min 6 sec 

Total time                  ....      66.348 sec
Sum of individual times     ....      61.661 sec  ( 92.9%)

Fock matrix formation       ....      44.777 sec  ( 67.5%)
  Split-RI-J                ....      25.348 sec  ( 56.6% of F)
  XC integration            ....      18.019 sec  ( 40.2% of F)
    Basis function eval.    ....       5.690 sec  ( 31.6% of XC)
    Density eval.           ....       5.874 sec  ( 32.6% of XC)
    XC-Functional eval.     ....       0.216 sec  (  1.2% of XC)
    XC-Potential eval.      ....       4.423 sec  ( 24.5% of XC)
Diagonalization             ....       0.301 sec  (  0.5%)
Density matrix formation    ....       0.248 sec  (  0.4%)
Population analysis         ....       2.929 sec  (  4.4%)
Initial guess               ....       0.966 sec  (  1.5%)
Orbital Transformation      ....       0.000 sec  (  0.0%)
Orbital Orthonormalization  ....       0.866 sec  (  1.3%)
DIIS solution               ....       0.337 sec  (  0.5%)
SOSCF solution              ....       3.631 sec  (  5.5%)
Grid generation             ....       8.472 sec  ( 12.8%)


-------------------------------------------------------------------------------
                          DFT DISPERSION CORRECTION                            
                                                                               
                              DFTD3 V3.1  Rev 1                                
                          USING Becke-Johnson damping                          
-------------------------------------------------------------------------------
The BLYP functional is recognized
Active option DFTDOPT                   ...         4   

molecular C6(AA) [au] = 97102.853112 


            DFT-D V3
 parameters
 s6 scaling factor         :     1.0000 
 a1 scaling factor         :     0.4298 
 s8 scaling factor         :     2.6996 
 a2 scaling factor         :     4.2359 
 ad hoc parameters k1-k3   :    16.0000     1.3333    -4.0000 

 Edisp/kcal,au: -172.746297336641  -0.275288718417 
 E6   /kcal   : -67.665687277 
 E8   /kcal   : -105.080610059 
 % E8         :  60.829442761 

-------------------------   ----------------
Dispersion correction           -0.275288718
-------------------------   ----------------


-------------------------   --------------------
FINAL SINGLE POINT ENERGY     -2291.113265980273
-------------------------   --------------------

                                *** OPTIMIZATION RUN DONE ***

                            ***************************************
                            *     ORCA property calculations      *
                            ***************************************

                                    ---------------------
                                    Active property flags
                                    ---------------------
   (+) Dipole Moment


------------------------------------------------------------------------------
                       ORCA ELECTRIC PROPERTIES CALCULATION
------------------------------------------------------------------------------

Dipole Moment Calculation                       ... on
Quadrupole Moment Calculation                   ... off
Polarizability Calculation                      ... off
GBWName                                         ... ./orca.gbw
Electron density file                           ... ./orca.scfp.tmp
The origin for moment calculation is the CENTER OF MASS  = (-10.793654, -4.717333  0.048032)

-------------
DIPOLE MOMENT
-------------
                                X             Y             Z
Electronic contribution:      0.06531      -0.09367       0.36635
Nuclear contribution   :     -0.16146       0.22757      -0.78399
                        -----------------------------------------
Total Dipole Moment    :     -0.09615       0.13390      -0.41765
                        -----------------------------------------
Magnitude (a.u.)       :      0.44900
Magnitude (Debye)      :      1.14127


Timings for individual modules:

Sum of individual times         ...     1043.958 sec (=  17.399 min)
GTO integral calculation        ...       29.222 sec (=   0.487 min)   2.8 %
SCF iterations                  ...      782.365 sec (=  13.039 min)  74.9 %
SCF Gradient evaluation         ...      222.983 sec (=   3.716 min)  21.4 %
Geometry relaxation             ...        9.389 sec (=   0.156 min)   0.9 %
                             ****ORCA TERMINATED NORMALLY****
TOTAL RUN TIME: 0 days 0 hours 17 minutes 32 seconds 710 msec
