
OPTIMIZATION CYCLE 50
Mo 15. Mai 19:28:36 CEST 2017
 operating system is UNIX !
 hostname is         taurusi3176

 rdgrad (taurusi3176) : TURBOMOLE V6.6( 19103 ) 21 May 2014 at 15:45:05
 Copyright (C) 2014 TURBOMOLE GmbH, Karlsruhe


    2017-05-15 19:28:36.590 



                                 r d g r a d

                          gradient for ridft program 

                        by K.Eichkorn, O.Treutler, H.Oehm, 
                             M.Haeser and R.Ahlrichs
                  (Chemical Physics Letters 242 (1995) 652-660)
                    parallel version: M.v.Arnim  &  R.Ahlrichs
                            quantum chemistry group
                             university  karlsruhe
                                   germany




                          References             
                                                 
          Density Functional:                              
              O. Treutler and R. Ahlrichs                      
              Efficient Molecular Numerical Integration Schemes
              J. chem. Phys. 102: 346 (1995)                   
          Parallel Version:                                
              Performance of parallel TURBOMOLE for Density    
              Functional Calculations                          
              M. v.Arnim and R. Ahlrichs                      
              J. comp. Chem. 19: 1746 (1998)                   
          RI-J Method:                                     
              Auxiliary Basis Sets to approximate Coulomb      
              Potentials                                       
              Chem. Phys. Lett. 240: 283 (1995)                
              K. Eichkorn, O. Treutler, H. Oehm, M. Haeser     
              and R. Ahlrichs                                  
              Chem. Phys. Lett. 242: 652 (1995)                
                                                           
              Auxiliary Basis Sets for Main Row Atoms and their
              Use to approximate Coulomb Potentials            
              K. Eichkorn, F. Weigend, O. Treutler and         
              R. Ahlrichs                                      
              Theo. Chem. Acc. 97: 119 (1997)                   
                                         



 integral neglect threshold       :  0.26E-12
 integral storage threshold THIZE :  0.10E-04
 integral storage threshold THIME :         5

 B-LYP functional
 exchange:    LDA + Becke (B88)  
 correlation: Lee-Yang-Parr (LYP)
 A DFT gradient calculation using the RI-J approximation will be carried out.
  
  
 AUXILIARY BASIS SET information:

 symmetry group of the molecule :   c1 

 the group has the following generators :
   c1(z)

    1 symmetry operations found

 there are 1 real representations :   a   

 maximum number of shells which are related by symmetry :  1


    mo occupation :
   irrep   mo's   occupied
    a     1206      183
 
 number of basis functions   :         1206
 number of occupied orbitals :          183
 

 number of off-diagonal lagrangians expected :  0

 number of off-diagonal lagrangians expected :  0

 biggest AO integral is expected to be     7.998976882
  
           ------------------
           density functional
           ------------------
 B-LYP functional
 exchange:    LDA + Becke (B88)  
 correlation: Lee-Yang-Parr (LYP)
 iterations will be done with small grid
  
 spherical integration : Lebedev's spherical grid
 spherical gridsize    :           3
    i.e. gridpoints    :         302
 value for diffuse not defined
 radial integration    : Chebyshev 2nd kind (scaling 3)
 radial gridsize       :           3
 integration cells     :          84
 partition function    : becke
 partition sharpness   :           3
  
 
 Derivatives of quadrature weights will be included
 
  
           ------------------------
             RDGRAD - INFORMATION
           ------------------------
  
 Threshold for integral neglect (rithr1): 1E-10
 Threshold for integral neglect (rithr2): 1E-10
 Contributions to RI integral batches: 
  neglected integral batches:      111425
  direct contribution:              72496
     
 
    +---------------- Multipole Accelerated RI-J ---------------+
    -------------------------------------------------------------
      Number of bins for density partition        :  8
      Maximum multipole moment used               : 14
      Multipole precision parameter               :  1.0000E-08
      Threshold for moment summation              :  1.0000E-24
      Minimum separation between boxes            :  0.0000E+00
      Maximum allowed extent                      :  2.0000E+01
    +-----------------------------------------------------------+
 
 Extensions and centers of shell-pairs:
  number of shells with a single center:    67984
  number of shells with double centers:      4512
 ****************************************
 Memory allocated for RDGRAD: 59 MiB
 ****************************************
                                            
     

 nuclear repulsion energy  :   6336.26559297    

 
          -----------------
          -S- integrals
          -----------------

 1e-integrals will be neglected if expon. factor < 0.265235E-13
  MOs are in ASCII format !


 reading orbital data $scfmo  from file mos . 

 orbital characterization : scfconv=8
 
  Deviation of MOs from orthonormality   9.079653695565071E-012

    ----------------------------------------
     S+T+V CONTRIBUTIONS TO ENERGY GRADIENT 
    ----------------------------------------

 1e-integral 1st. derivatives will be neglected if expon. factor < 0.531363E-15

  _________________________________
 |                                 |
 |         DFTD3 V2.1 Rev 1        |
 | S.Grimme, University Muenster   |
 |        Tue May 10  2011         |
 |   see standalone version        |
 |       dftd3 -h for options      |
 |_________________________________|
 
 Please cite DFT-D3 work done with this code as:
 S. Grimme, J. Antony, S. Ehrlich and H. Krieg,
 J. Chem. Phys, 132 (2010), 154104.
 If used with BJ-damping cite also
 S. Grimme, S. Ehrlich and L. Goerigk,
 J. Comput. Chem. 32 (2011), 1456-1465
 For DFT-D2 the reference is
 S. Grimme, J. Comput. Chem., 27 (2006), 1787-1799
 
C6 coefficients used:
           2  C6 for element            1
Z=  1 CN= 0.912     C6(AA)=    3.03
Z=  1 CN= 0.000     C6(AA)=    7.59
           5  C6 for element            6
Z=  6 CN= 0.000     C6(AA)=   49.11
Z=  6 CN= 0.987     C6(AA)=   43.25
Z=  6 CN= 1.998     C6(AA)=   29.36
Z=  6 CN= 2.999     C6(AA)=   25.78
Z=  6 CN= 3.984     C6(AA)=   18.21
           4  C6 for element            7
Z=  7 CN= 0.000     C6(AA)=   25.27
Z=  7 CN= 0.994     C6(AA)=   22.12
Z=  7 CN= 2.014     C6(AA)=   19.68
Z=  7 CN= 2.990     C6(AA)=   15.58
           3  C6 for element            8
Z=  8 CN= 0.000     C6(AA)=   15.51
Z=  8 CN= 0.993     C6(AA)=   12.82
Z=  8 CN= 1.989     C6(AA)=   10.37

#           XYZ [au]              R0(AA) [Ang.]  CN          C6(AA)     C8(AA)   C10(AA) [au]
  1 -13.31196   1.42713  -8.71697   c   1.455  3.161        25.2       729.4     25842.3
  2 -12.89484  -1.18482  -8.42633   c   1.455  3.214        24.9       721.6     25564.7
  3 -13.08916  -2.75474 -10.56589   c   1.455  3.161        25.2       729.4     25843.4
  4 -13.67853  -1.73900 -12.93714   c   1.455  3.122        25.4       733.8     25998.9
  5 -14.09046   0.86349 -13.20442   c   1.455  3.122        25.4       733.8     25998.0
  6 -13.90699   2.44319 -11.08630   c   1.455  3.122        25.4       733.8     25998.5
  7 -12.25040  -2.26983  -5.88385   c   1.455  3.189        25.1       725.6     25706.1
  8 -14.07133  -3.86664  -4.77491   c   1.455  3.338        23.9       690.7     24469.6
  9 -13.83052  -5.17285  -2.51591   n   1.311  3.259        15.6       344.0      9295.7
 10 -15.98918  -6.57155  -2.02344   c   1.455  3.338        23.9       690.9     24477.3
 11 -17.69978  -6.09401  -4.08580   c   1.455  3.254        24.7       713.6     25283.2
 12 -16.54123  -4.46165  -5.74631   c   1.455  3.254        24.7       713.8     25287.8
 13 -16.41623  -8.13003   0.09579   c   1.455  3.188        25.1       725.7     25709.9
 14 -18.85794  -9.57163   0.12608   c   1.455  3.215        24.9       721.4     25557.2
 15 -19.34165 -11.46817  -1.67955   c   1.455  3.161        25.2       729.4     25842.6
 16 -21.61386 -12.81038  -1.66242   c   1.455  3.152        25.3       730.6     25883.1
 17 -23.46706 -12.27544   0.17174   c   1.455  3.169        25.2       728.4     25808.2
 18 -22.99651 -10.38360   1.98330   c   1.455  3.161        25.2       729.5     25844.1
 19 -20.72082  -9.05362   1.95912   c   1.455  3.160        25.2       729.5     25845.7
 20 -25.93116 -13.64386   0.28049   c   1.455  3.084        25.5       737.2     26116.8
 21 -26.18025 -15.43044  -1.60701   o   1.241  2.030        10.4       209.9      5189.0
 22 -19.57854  -6.88604  -4.24251   h   1.091  1.002         3.1        37.3       553.1
 23 -17.31544  -3.70523  -7.48139   h   1.091  1.002         3.1        37.3       553.1
 24 -14.74995  -8.43720   2.16945   c   1.455  3.410        23.0       664.4     23538.9
 25 -15.19451 -10.23769   4.22921   c   1.455  3.234        24.8       717.8     25430.9
 26 -13.21687  -9.99036   5.85507   c   1.455  3.234        24.8       717.8     25431.9
 27 -11.56264  -8.03938   4.79145   c   1.455  3.411        23.0       664.0     23526.1
 28 -12.51650  -7.15258   2.53622   n   1.311  2.202        19.3       425.9     11509.4
 29 -16.77798 -11.52687   4.37472   h   1.091  1.002         3.1        37.3       553.1
 30  -9.29854  -7.23085   5.96639   c   1.455  3.189        25.1       725.6     25706.4
 31  -7.55477  -5.50274   4.93232   c   1.455  3.338        23.9       690.7     24470.5
 32  -7.67690  -4.39797   2.55909   n   1.311  3.258        15.6       344.0      9295.7
 33  -5.63251  -2.80650   2.17528   c   1.455  3.338        23.9       691.0     24479.9
 34  -4.14882  -2.89992   4.45480   c   1.455  3.254        24.7       713.7     25284.1
 35  -5.30941  -4.52748   6.11839   c   1.455  3.254        24.7       713.8     25288.1
 36 -12.87763 -11.03652   7.58173   h   1.091  1.002         3.1        37.4       553.1
 37  -5.13492  -1.36796  -0.01197   c   1.455  3.188        25.1       725.6     25709.1
 38  -2.72022   0.11846  -0.02234   c   1.455  3.215        24.9       721.3     25555.5
 39  -2.76826   2.78029  -0.03791   c   1.455  3.161        25.2       729.4     25840.9
 40  -0.52922   4.17648  -0.04407   c   1.455  3.152        25.3       730.5     25881.2
 41   1.82300   2.93125  -0.04085   c   1.455  3.169        25.2       728.4     25807.3
 42   1.88591   0.27141  -0.03008   c   1.455  3.161        25.2       729.4     25843.4
 43  -0.35771  -1.11205  -0.01693   c   1.455  3.160        25.2       729.5     25845.1
 44  -2.43416  -1.83032   4.76759   h   1.091  1.002         3.1        37.3       553.1
 45  -4.69761  -5.00816   8.00948   h   1.091  1.002         3.1        37.3       553.1
 46   4.27532   4.32448  -0.04989   c   1.455  3.084        25.5       737.1     26116.6
 47   6.36515   3.34230  -0.03081   o   1.241  1.041        12.8       257.9      6374.7
 48 -27.59286 -13.27440   1.84060   o   1.241  1.041        12.8       257.9      6374.7
 49  -8.67989  -8.27328   8.53273   c   1.455  3.214        24.9       721.6     25564.1
 50  -6.59375  -9.88768   8.88124   c   1.455  3.161        25.2       729.5     25844.1
 51  -6.02465 -10.85939  11.27561   c   1.455  3.122        25.4       733.8     25998.3
 52  -7.52939 -10.22649  13.36089   c   1.455  3.122        25.4       733.8     25997.6
 53  -9.60828  -8.61823  13.03639   c   1.455  3.122        25.4       733.8     25998.5
 54 -10.17984  -7.65154  10.64094   c   1.455  3.161        25.2       729.4     25841.1
 55  -6.71419  -1.20687  -2.16840   c   1.455  3.410        23.0       664.3     23535.8
 56  -9.06556  -2.29229  -2.42306   n   1.311  2.202        19.3       425.9     11509.2
 57  -9.89382  -1.61677  -4.79771   c   1.455  3.411        23.0       664.0     23523.2
 58  -7.97876  -0.10565  -6.11015   c   1.455  3.234        24.8       717.8     25432.5
 59  -6.00604   0.14986  -4.47945   c   1.455  3.234        24.8       717.8     25429.8
 60  -8.12550   0.61511  -8.02049   h   1.091  1.002         3.1        37.4       553.1
 61  -4.23212   1.11764  -4.80683   h   1.091  1.002         3.1        37.3       553.1
 62   3.96629   6.91614  -0.08275   o   1.241  2.030        10.4       209.9      5189.0
 63  -7.08604 -10.98206  15.22394   h   1.091  1.002         3.1        37.3       553.1
 64 -14.54947   1.65456 -15.04887   h   1.091  1.002         3.1        37.3       553.1
 65 -12.31756  -5.03088  -1.32993   h   1.091  1.011         3.1        37.3       552.4
 66  -9.13369  -4.63648   1.31937   h   1.091  1.011         3.1        37.3       552.4
 67  -4.41136 -12.11744  11.51015   h   1.091  1.002         3.1        37.3       553.1
 68  -5.42860 -10.38663   7.25937   h   1.091  1.003         3.1        37.3       553.0
 69 -11.79606  -6.40328  10.38551   h   1.091  1.003         3.1        37.3       553.0
 70 -10.78354  -8.11075  14.64928   h   1.091  1.002         3.1        37.3       553.1
 71 -21.95527 -14.27870  -3.05787   h   1.091  1.003         3.1        37.3       553.0
 72 -17.90904 -11.89341  -3.09359   h   1.091  1.003         3.1        37.3       553.0
 73 -20.36615  -7.59049   3.36043   h   1.091  1.003         3.1        37.3       553.0
 74 -24.43931  -9.97343   3.39021   h   1.091  1.003         3.1        37.3       553.0
 75 -13.80627  -2.97868 -14.57621   h   1.091  1.002         3.1        37.3       553.1
 76 -12.75973  -4.77605 -10.35958   h   1.091  1.003         3.1        37.3       553.0
 77 -13.16723   2.65253  -7.07024   h   1.091  1.003         3.1        37.3       553.0
 78 -14.23244   4.46753 -11.27644   h   1.091  1.002         3.1        37.3       553.1
 79   3.70915  -0.68022  -0.04247   h   1.091  1.003         3.1        37.3       553.0
 80  -0.29742  -3.16864  -0.01871   h   1.091  1.003         3.1        37.3       553.0
 81  -4.58363   3.74798  -0.03941   h   1.091  1.003         3.1        37.3       553.0
 82  -0.59633   6.22993  -0.04343   h   1.091  1.003         3.1        37.3       553.0
 83 -27.84180 -16.20919  -1.35825   h   1.091  1.010         3.1        37.3       552.4
 84   5.67257   7.63588  -0.08216   h   1.091  1.010         3.1        37.3       552.4

molecular C6(AA) [au] =     97133.38

           DFT-D V3
 DF b-lyp                                             
 parameters
 s6       :    1.0000
 s8       :    1.6820
 rs6      :    1.0940
 rs18     :    1.0000
 alpha6   :   14.0000
 alpha8   :   16.0000
 k1-k3    :   16.0000    1.3333   -4.0000
 
 Edisp /kcal,au:   -76.7641 -0.12233142

 E6    /kcal :   -30.4974
 E8    /kcal :   -46.2668
 % E8        : 60.27
 
 doing analytical gradient O(N^3) ...
 
 |G|=  5.283117300402244E-002

 setting up bound for integral derivative estimation

 increment for numerical differentiation : 0.00050000

 biggest AO integral is expected to be     7.998976882
 biggest cartesian 1st derivative AO integral is expected to be    17.678530758
          Overall gridpoints after grid construction =        424289
 Ordering of quadrature gridpoints disabled.

 Integrated ground state density     :   366.0000932276675    


          ------------------------------------------------
           cartesian gradient of the energy (hartree/bohr)
          ------------------------------------------------

  ATOM      1 c           2 c           3 c           4 c           5 c 
dE/dx  0.2807116D-05  0.6189534D-05  0.1640356D-06  0.1127723D-04 -0.1679257D-04
dE/dy  0.2274773D-05 -0.8520706D-05 -0.3816740D-07 -0.1304014D-05 -0.3872444D-05
dE/dz -0.3360616D-05  0.3636480D-05 -0.1382963D-05 -0.1106367D-05  0.1105398D-05

  ATOM      6 c           7 c           8 c           9 n          10 c 
dE/dx -0.2439052D-05 -0.1684217D-05 -0.7004935D-05  0.1045382D-05  0.2763340D-05
dE/dy -0.1265250D-05  0.8198004D-05  0.4754942D-05 -0.2250700D-06 -0.4762478D-05
dE/dz  0.1801113D-06 -0.5790065D-05  0.1188445D-04 -0.3897694D-05  0.3994911D-05

  ATOM     11 c          12 c          13 c          14 c          15 c 
dE/dx -0.5425593D-05  0.4566038D-05  0.6248015D-06  0.9896229D-05 -0.1520645D-04
dE/dy  0.1350706D-04 -0.1042764D-04 -0.5240610D-05 -0.8391212D-05  0.2169695D-04
dE/dz  0.1384209D-04 -0.6331478D-05 -0.2507991D-05  0.7437192D-05 -0.1422245D-04

  ATOM     16 c          17 c          18 c          19 c          20 c 
dE/dx  0.1128104D-04 -0.4752517D-05 -0.5053152D-05  0.3545364D-05 -0.2004813D-05
dE/dy -0.1207367D-04  0.6866766D-05  0.1618011D-04 -0.9833296D-05  0.1765704D-05
dE/dz  0.1409225D-04 -0.7832747D-05 -0.8750303D-05  0.1276712D-04 -0.1515189D-05

  ATOM     21 o          22 h          23 h          24 c          25 c 
dE/dx  0.2567945D-05  0.8190598D-07 -0.6516409D-06  0.2379828D-05  0.6573312D-05
dE/dy -0.4697827D-05  0.4524032D-05 -0.3291484D-05 -0.3066073D-05 -0.9060508D-05
dE/dz  0.5988982D-05  0.2723684D-05  0.2569885D-06 -0.6332193D-06 -0.6114312D-05

  ATOM     26 c          27 c          28 n          29 h          30 c 
dE/dx -0.4903144D-05  0.7266914D-05 -0.8160900D-05  0.6690064D-05 -0.8798276D-05
dE/dy  0.2857270D-05 -0.6642085D-05 -0.6385340D-07 -0.1827550D-05 -0.6467008D-05
dE/dz  0.2452630D-05 -0.2106581D-05  0.2438749D-05 -0.1630410D-05 -0.4086747D-05

  ATOM     31 c          32 n          33 c          34 c          35 c 
dE/dx  0.3553907D-05 -0.6850256D-05  0.3828748D-05 -0.2091973D-05 -0.2527492D-06
dE/dy -0.6336383D-05  0.4674988D-05 -0.1162118D-04  0.5521391D-05  0.7182476D-05
dE/dz -0.1197114D-05  0.3161289D-05  0.4753718D-06  0.2407365D-05  0.2411278D-05

  ATOM     36 h          37 c          38 c          39 c          40 c 
dE/dx  0.5327937D-07  0.1349935D-04 -0.9813721D-05  0.1799999D-05  0.1093789D-05
dE/dy  0.4310629D-05 -0.1410051D-05  0.6142282D-05  0.5126001D-06 -0.1475452D-06
dE/dz  0.5410917D-06 -0.7301443D-05 -0.1332758D-04 -0.3242758D-04  0.1266461D-04

  ATOM     41 c          42 c          43 c          44 h          45 h 
dE/dx -0.4755664D-06  0.5614252D-06  0.4579286D-05  0.9918184D-06 -0.2088930D-05
dE/dy  0.1844580D-05 -0.1549827D-05  0.8169089D-07  0.2796646D-05  0.4212526D-05
dE/dz  0.1805742D-04  0.2700613D-04 -0.1829229D-05  0.3180047D-06 -0.2030347D-06

  ATOM     46 c          47 o          48 o          49 c          50 c 
dE/dx  0.7236183D-06 -0.1251359D-05 -0.1647795D-05  0.4173507D-05 -0.1280116D-04
dE/dy  0.2250163D-05 -0.3801548D-05  0.3998677D-05  0.1074791D-05 -0.1848120D-04
dE/dz  0.3048124D-04 -0.4244731D-04 -0.4850169D-06  0.5085471D-05 -0.5775864D-05

  ATOM     51 c          52 c          53 c          54 c          55 c 
dE/dx  0.1710448D-04 -0.9004648D-05  0.8844412D-05 -0.6804958D-07 -0.6266200D-05
dE/dy  0.2232946D-04 -0.1010985D-04  0.9419285D-05 -0.2549536D-06  0.4780683D-05
dE/dz  0.6521650D-05 -0.2884503D-05  0.2709848D-05 -0.6458132D-06 -0.5366256D-05

  ATOM     56 n          57 c          58 c          59 c          60 h 
dE/dx -0.2335725D-05  0.3327862D-05 -0.1404763D-04  0.1080599D-04 -0.5354685D-06
dE/dy -0.4354354D-05  0.2943917D-06  0.8379079D-05 -0.1585785D-04  0.3491107D-05
dE/dz  0.4552619D-06  0.4385203D-06  0.2445068D-05 -0.8093495D-05 -0.1082511D-05

  ATOM     61 h          62 o          63 h          64 h          65 h 
dE/dx  0.4125522D-05  0.2100781D-05 -0.4967706D-05 -0.7263454D-05 -0.3061696D-05
dE/dy -0.4075491D-05  0.5351463D-06 -0.6380397D-05 -0.2615764D-05  0.4096853D-06
dE/dz -0.4311491D-05  0.3662010D-05 -0.1618186D-05  0.7978746D-06  0.5590908D-06

  ATOM     66 h          67 h          68 h          69 h          70 h 
dE/dx -0.2738796D-05  0.6283488D-05 -0.5443532D-05  0.3670974D-05  0.5134337D-05
dE/dy  0.3728225D-05  0.8921229D-05 -0.5487586D-05  0.2933826D-05  0.6109816D-05
dE/dz  0.3040927D-07  0.2112633D-05 -0.1149605D-05  0.1248996D-05  0.1600991D-05

  ATOM     71 h          72 h          73 h          74 h          75 h 
dE/dx  0.4033092D-05 -0.8005305D-05  0.1538805D-05 -0.1535633D-05  0.1714171D-05
dE/dy -0.7999598D-05  0.1035934D-04 -0.4659053D-05  0.3100084D-05 -0.1390279D-05
dE/dz  0.9568348D-05 -0.6579285D-05  0.1109382D-05 -0.2606163D-05  0.3376640D-06

  ATOM     76 h          77 h          78 h          79 h          80 h 
dE/dx  0.1277173D-05 -0.2229592D-05  0.3410508D-05  0.1157417D-06 -0.2671410D-07
dE/dy -0.8504878D-06  0.4169595D-06 -0.1263684D-06 -0.8151917D-06 -0.2369461D-05
dE/dz -0.1203272D-06 -0.1530898D-06 -0.1689686D-05  0.2378190D-06  0.7619794D-05

  ATOM     81 h          82 h          83 h          84 h 
dE/dx -0.1772755D-05  0.2358387D-06  0.6944756D-06  0.4570576D-06
dE/dy  0.1176652D-05  0.2432631D-06 -0.7414630D-06 -0.1350501D-05
dE/dz -0.6605218D-05 -0.2293207D-05  0.2860572D-05 -0.8264179D-05
 
 resulting FORCE  (fx,fy,fz) = (-.161D-09,-.410D-10,-.676D-10)
 resulting MOMENT (mx,my,mz) = (-.688D-03,0.635D-03,-.120D-04)


 exx =       0.000111 eyy =      -0.000143 ezz =       0.000066
 eyz =      -0.000014 exz =      -0.000015 exy =      -0.000099


 **********************************************************************
  |maximum component of gradient| : 0.42447307E-04  (atom 47 o )       
   gradient norm                  : 0.12031015E-03
 **********************************************************************
   ***  cartesian gradients written onto <gradient>  ***


     --- calculation of the energy gradient finished ---



    ------------------------------------------------------------------------
         total  cpu-time :  2 minutes and 50 seconds
         total wall-time :  2 minutes and 52 seconds
    ------------------------------------------------------------------------


   ****  rdgrad : all done  ****


    2017-05-15 19:31:28.595 

fine, there is no data group "$actual step"
next step = relax
 operating system is UNIX !
 hostname is         taurusi3176

 statpt (taurusi3176) : TURBOMOLE V6.6( 19103 ) 21 May 2014 at 15:45:05
 Copyright (C) 2014 TURBOMOLE GmbH, Karlsruhe


    2017-05-15 19:31:28.702 



                           this is S T A T P T   


                     hessian and coordinate update for
                          stationary point search 

                     by barbara unterreiner, marek sierka,
                           and reinhart ahlrichs

                          quantum chemistry group
                          universitaet  karlsruhe
                                  germany


  Keyword $statpt not found - using default options
 
        ***************  Stationary point options ******************
        ************************************************************
           Maximum allowed trust radius:           3.000000E-01
           Minimum allowed trust radius:           1.000000E-03
           Initial trust radius:                   1.500000E-01
           GDIIS used if gradient norm <           1.000000E-02
           Number of previous steps for GDIIS:       5
           Hessian update method:                  BFGS
                        *** Convergence criteria ***                
           Threshold for energy change:            1.000000E-06
           Threshold for max displacement element: 1.000000E-03
           Threshold for max gradient element :    1.000000E-04
           Threshold for RMS of displacement:      5.000000E-04
           Threshold for RMS of gradient:          5.000000E-04
        ************************************************************
 
     Number of symmetry restricted degrees of freedom:   252
     Constituted by:     3 translational degrees of freedom
                         3 rotational degrees of freedom
                     246 internal degrees of freedom

  *************************************************************************
   ATOM                      CARTESIAN COORDINATES
    1 c     -13.31196303222828      1.42713332967076     -8.71696847631084
    2 c     -12.89484220931580     -1.18481980265106     -8.42633413957820
    3 c     -13.08916349259827     -2.75474131154249    -10.56588863830916
    4 c     -13.67852957905788     -1.73899679425283    -12.93713698354838
    5 c     -14.09046142713937      0.86348786904633    -13.20441980102391
    6 c     -13.90699236400785      2.44318644438948    -11.08630135108497
    7 c     -12.25040400384061     -2.26983192509758     -5.88384622962427
    8 c     -14.07132582173170     -3.86663963590299     -4.77491382049474
    9 n     -13.83051523460225     -5.17284516794558     -2.51591005023434
   10 c     -15.98918000484094     -6.57154955467082     -2.02344050725967
   11 c     -17.69978077966402     -6.09401201642207     -4.08580452276378
   12 c     -16.54122844970195     -4.46165263576467     -5.74630960149229
   13 c     -16.41622970403158     -8.13003349546050      0.09578578987579
   14 c     -18.85793628486173     -9.57162923770190      0.12607746446576
   15 c     -19.34164746284231    -11.46816644833366     -1.67955442261563
   16 c     -21.61386019224874    -12.81037920848601     -1.66242034295416
   17 c     -23.46706255620271    -12.27544220356439      0.17173790829661
   18 c     -22.99651375119943    -10.38359770617322      1.98330056269842
   19 c     -20.72082136418482     -9.05361934054205      1.95912459472047
   20 c     -25.93116326080327    -13.64385565691879      0.28049380264791
   21 o     -26.18024512520055    -15.43043935359413     -1.60701449837081
   22 h     -19.57854409251624     -6.88604483614318     -4.24251214178413
   23 h     -17.31544045476446     -3.70522895988225     -7.48138718551548
   24 c     -14.74994572580893     -8.43719896423812      2.16945060838343
   25 c     -15.19451488321475    -10.23768713543134      4.22920690540713
   26 c     -13.21687453147544     -9.99035526917194      5.85506898861593
   27 c     -11.56264154887602     -8.03937858086597      4.79144840675300
   28 n     -12.51649984735485     -7.15257883295142      2.53621514020132
   29 h     -16.77798241210868    -11.52686661432726      4.37472471207455
   30 c      -9.29853662037620     -7.23084802139080      5.96639445184667
   31 c      -7.55477366793098     -5.50273849440394      4.93232085671402
   32 n      -7.67689619895089     -4.39796852967356      2.55909416759389
   33 c      -5.63251053939834     -2.80650068438845      2.17527614853156
   34 c      -4.14882045922010     -2.89992352810432      4.45480267035052
   35 c      -5.30941331954623     -4.52748155290772      6.11838673707209
   36 h     -12.87763176956188    -11.03652098845680      7.58172716778938
   37 c      -5.13492258336514     -1.36795652179501     -0.01196590051692
   38 c      -2.72021686193600      0.11846046394400     -0.02233596345223
   39 c      -2.76825760660901      2.78028820019816     -0.03791037777077
   40 c      -0.52921989781933      4.17647687224420     -0.04406538529578
   41 c       1.82300373838940      2.93124955937567     -0.04085356488133
   42 c       1.88590604202017      0.27140672987075     -0.03007898872139
   43 c      -0.35770907893886     -1.11204721282284     -0.01693276254961
   44 h      -2.43415661378728     -1.83032445816677      4.76758553615500
   45 h      -4.69761168153383     -5.00815689417730      8.00947727244022
   46 c       4.27531733985467      4.32448182882303     -0.04988899345894
   47 o       6.36515104775310      3.34230148443330     -0.03080992693532
   48 o     -27.59285852537673    -13.27440019270131      1.84059884943299
   49 c      -8.67989395400150     -8.27328407679300      8.53273474705137
   50 c      -6.59375051694047     -9.88767857501248      8.88124097799052
   51 c      -6.02465190737235    -10.85939209191200     11.27560765446420
   52 c      -7.52938598740282    -10.22649287138574     13.36089394860943
   53 c      -9.60827538473592     -8.61822696371102     13.03639063745818
   54 c     -10.17983849538712     -7.65153926953771     10.64094075213870
   55 c      -6.71418510256963     -1.20687322299069     -2.16840456625585
   56 n      -9.06556107615904     -2.29229342471045     -2.42306271387832
   57 c      -9.89382048016203     -1.61677109627211     -4.79770732838925
   58 c      -7.97876141590369     -0.10565097697864     -6.11015175245044
   59 c      -6.00603590491507      0.14986016286280     -4.47945252547551
   60 h      -8.12550417019931      0.61511116877761     -8.02049160309477
   61 h      -4.23211849880682      1.11764031988337     -4.80682701146815
   62 o       3.96628513935326      6.91614456019752     -0.08274785201933
   63 h      -7.08604435735774    -10.98206333277349     15.22394120829249
   64 h     -14.54947397534418      1.65455885050875    -15.04886510308138
   65 h     -12.31755573834139     -5.03087844248646     -1.32992507776413
   66 h      -9.13369216706132     -4.63647967163959      1.31936630060448
   67 h      -4.41136068730521    -12.11744280370046     11.51015044051507
   68 h      -5.42859693328602    -10.38662939507206      7.25937455629477
   69 h     -11.79606310704802     -6.40327983172137     10.38550928406248
   70 h     -10.78353502217369     -8.11074761980312     14.64928384843016
   71 h     -21.95527304999825    -14.27870036267317     -3.05787277471213
   72 h     -17.90904318522638    -11.89340684659875     -3.09358853981730
   73 h     -20.36614850378261     -7.59048785826874      3.36042803942167
   74 h     -24.43930747477173     -9.97343322516813      3.39020808152262
   75 h     -13.80626631062441     -2.97867748332651    -14.57621466066395
   76 h     -12.75973096124677     -4.77605358985450    -10.35957503496978
   77 h     -13.16723139407653      2.65253439314290     -7.07024333445772
   78 h     -14.23243756007988      4.46752806178796    -11.27644030958922
   79 h       3.70914816951193     -0.68021879532288     -0.04247137203945
   80 h      -0.29741844182038     -3.16864150425397     -0.01870732014704
   81 h      -4.58362920677944      3.74797841054419     -0.03941319388022
   82 h      -0.59633477669211      6.22993371378862     -0.04343253158170
   83 h     -27.84180404690699    -16.20918555925851     -1.35824992090591
   84 h       5.67256905874740      7.63587869140882     -0.08216201617289
  *************************************************************************
   ATOM                      CARTESIAN GRADIENTS  
    1 c       0.00000280711622      0.00000227477288     -0.00000336061625
    2 c       0.00000618953371     -0.00000852070574      0.00000363648015
    3 c       0.00000016403556     -0.00000003816740     -0.00000138296313
    4 c       0.00001127723004     -0.00000130401352     -0.00000110636746
    5 c      -0.00001679256902     -0.00000387244391      0.00000110539828
    6 c      -0.00000243905196     -0.00000126524986      0.00000018011129
    7 c      -0.00000168421658      0.00000819800443     -0.00000579006517
    8 c      -0.00000700493485      0.00000475494249      0.00001188445133
    9 n       0.00000104538153     -0.00000022507000     -0.00000389769407
   10 c       0.00000276334046     -0.00000476247753      0.00000399491102
   11 c      -0.00000542559266      0.00001350706287      0.00001384209054
   12 c       0.00000456603805     -0.00001042764030     -0.00000633147849
   13 c       0.00000062480153     -0.00000524061010     -0.00000250799109
   14 c       0.00000989622869     -0.00000839121187      0.00000743719177
   15 c      -0.00001520645413      0.00002169695189     -0.00001422244573
   16 c       0.00001128103694     -0.00001207367290      0.00001409225012
   17 c      -0.00000475251724      0.00000686676648     -0.00000783274684
   18 c      -0.00000505315186      0.00001618011200     -0.00000875030252
   19 c       0.00000354536441     -0.00000983329636      0.00001276711704
   20 c      -0.00000200481342      0.00000176570360     -0.00000151518896
   21 o       0.00000256794546     -0.00000469782727      0.00000598898231
   22 h       0.00000008190598      0.00000452403208      0.00000272368415
   23 h      -0.00000065164093     -0.00000329148386      0.00000025698852
   24 c       0.00000237982828     -0.00000306607292     -0.00000063321931
   25 c       0.00000657331167     -0.00000906050758     -0.00000611431157
   26 c      -0.00000490314413      0.00000285727016      0.00000245263008
   27 c       0.00000726691424     -0.00000664208476     -0.00000210658137
   28 n      -0.00000816089991     -0.00000006385340      0.00000243874892
   29 h       0.00000669006416     -0.00000182754991     -0.00000163041006
   30 c      -0.00000879827620     -0.00000646700777     -0.00000408674700
   31 c       0.00000355390660     -0.00000633638345     -0.00000119711402
   32 n      -0.00000685025600      0.00000467498840      0.00000316128926
   33 c       0.00000382874847     -0.00001162118444      0.00000047537183
   34 c      -0.00000209197282      0.00000552139141      0.00000240736491
   35 c      -0.00000025274918      0.00000718247576      0.00000241127796
   36 h       0.00000005327937      0.00000431062921      0.00000054109168
   37 c       0.00001349934863     -0.00000141005093     -0.00000730144339
   38 c      -0.00000981372129      0.00000614228238     -0.00001332757699
   39 c       0.00000179999921      0.00000051260009     -0.00003242758031
   40 c       0.00000109378859     -0.00000014754524      0.00001266460916
   41 c      -0.00000047556643      0.00000184457955      0.00001805742021
   42 c       0.00000056142524     -0.00000154982657      0.00002700613175
   43 c       0.00000457928611      0.00000008169089     -0.00000182922919
   44 h       0.00000099181843      0.00000279664580      0.00000031800473
   45 h      -0.00000208892965      0.00000421252607     -0.00000020303470
   46 c       0.00000072361830      0.00000225016262      0.00003048124266
   47 o      -0.00000125135936     -0.00000380154804     -0.00004244730693
   48 o      -0.00000164779468      0.00000399867667     -0.00000048501691
   49 c       0.00000417350682      0.00000107479111      0.00000508547097
   50 c      -0.00001280115635     -0.00001848119715     -0.00000577586416
   51 c       0.00001710447626      0.00002232946476      0.00000652165035
   52 c      -0.00000900464847     -0.00001010984944     -0.00000288450251
   53 c       0.00000884441168      0.00000941928516      0.00000270984773
   54 c      -0.00000006804958     -0.00000025495357     -0.00000064581318
   55 c      -0.00000626619976      0.00000478068297     -0.00000536625596
   56 n      -0.00000233572487     -0.00000435435366      0.00000045526186
   57 c       0.00000332786210      0.00000029439168      0.00000043852026
   58 c      -0.00001404762800      0.00000837907896      0.00000244506804
   59 c       0.00001080599132     -0.00001585785434     -0.00000809349480
   60 h      -0.00000053546855      0.00000349110682     -0.00000108251117
   61 h       0.00000412552159     -0.00000407549144     -0.00000431149121
   62 o       0.00000210078145      0.00000053514633      0.00000366200967
   63 h      -0.00000496770570     -0.00000638039674     -0.00000161818588
   64 h      -0.00000726345398     -0.00000261576426      0.00000079787458
   65 h      -0.00000306169615      0.00000040968531      0.00000055909075
   66 h      -0.00000273879557      0.00000372822490      0.00000003040927
   67 h       0.00000628348773      0.00000892122929      0.00000211263293
   68 h      -0.00000544353182     -0.00000548758604     -0.00000114960544
   69 h       0.00000367097429      0.00000293382639      0.00000124899625
   70 h       0.00000513433723      0.00000610981612      0.00000160099142
   71 h       0.00000403309245     -0.00000799959773      0.00000956834786
   72 h      -0.00000800530491      0.00001035933693     -0.00000657928483
   73 h       0.00000153880454     -0.00000465905275      0.00000110938199
   74 h      -0.00000153563339      0.00000310008392     -0.00000260616264
   75 h       0.00000171417089     -0.00000139027862      0.00000033766396
   76 h       0.00000127717345     -0.00000085048782     -0.00000012032719
   77 h      -0.00000222959201      0.00000041695947     -0.00000015308980
   78 h       0.00000341050848     -0.00000012636844     -0.00000168968590
   79 h       0.00000011574170     -0.00000081519173      0.00000023781899
   80 h      -0.00000002671410     -0.00000236946077      0.00000761979396
   81 h      -0.00000177275497      0.00000117665179     -0.00000660521778
   82 h       0.00000023583867      0.00000024326306     -0.00000229320722
   83 h       0.00000069447555     -0.00000074146301      0.00000286057188
   84 h       0.00000045705759     -0.00000135050059     -0.00000826417891
  *************************************************************************

  norm of actual CARTESIAN gradient:  1.20310E-04
  norm of actual INTERNAL  gradient:  3.03355E-04

  ENERGY =   -2290.9657734740 a.u.; # of cycle =   50

  Approximate Hessian read from $hessapprox data section

  Hessian updated according to BFGS formula
  Number of zero Hessian eigenvalues:   0
  Number of structures for GDIIS interpolation:    5
  GDIIS step:     0.000537

  Transforming internal coordinate displacements to Cartesian space
      Iteration   1 residual norm     5.366500E-04
      Iteration   2 residual norm     5.979813E-08
      Iteration   3 residual norm     8.395775E-13
      Transformation converged
      Residual norm:    8.395775E-13 after    3 iterations

      ****************************************************************** 
                          CONVERGENCE INFORMATION

                               Converged?     Value      Criterion
             Energy change         yes      0.0000000   0.0000010
             RMS of displacement   yes      0.0000342   0.0005000
             RMS of gradient       yes      0.0000193   0.0005000
             MAX displacement      yes      0.0003351   0.0010000
             MAX gradient          yes      0.0000945   0.0001000
      ****************************************************************** 


    ------------------------------------------------------------------------
         total  cpu-time :   1.67 seconds
         total wall-time :   1.90 seconds
    ------------------------------------------------------------------------


   ****  statpt : all done  ****


    2017-05-15 19:31:30.576 

fine, there is no data group "$actual step"
next step = ridft
 operating system is UNIX !
 hostname is         taurusi3176

 ridft (taurusi3176) : TURBOMOLE V6.6( 19103 ) 21 May 2014 at 15:45:05
 Copyright (C) 2014 TURBOMOLE GmbH, Karlsruhe


    2017-05-15 19:31:30.642 



                                  r i d f t

                        DFT program with RI approximation 
                                for coulomb part 




                                                 
                                 References:     
                                                 
          TURBOMOLE:                             
              R. Ahlrichs, M. Baer, M. Haeser, H. Horn, and
              C. Koelmel
              Electronic structure calculations on workstation
              computers: the program system TURBOMOLE
              Chem. Phys. Lett. 162: 165 (1989)
          Density Functional:                              
              O. Treutler and R. Ahlrichs                      
              Efficient Molecular Numerical Integration Schemes
              J. Chem. Phys. 102: 346 (1995)                   
          Parallel Version:                                
              Performance of parallel TURBOMOLE for Density    
              Functional Calculations                          
              M. v. Arnim and R. Ahlrichs                      
              J. Comp. Chem. 19: 1746 (1998)                   
          RI-J Method:                                     
              Auxiliary Basis Sets to approximate Coulomb      
              Potentials                                       
              Chem. Phys. Lett. 240: 283 (1995)                
              K. Eichkorn, O. Treutler, H. Oehm, M. Haeser     
              and R. Ahlrichs                                  
              Chem. Phys. Lett. 242: 652 (1995)                
                                                           
              Auxiliary Basis Sets for Main Row Atoms and their
              Use to approximate Coulomb Potentials            
              K. Eichkorn, F. Weigend, O. Treutler and         
              R. Ahlrichs                                      
              Theo. Chem. Acc. 97: 119 (1997)                   
                                                           
              Accurate Coulomb-fitting basis sets for H to Rn 
              F. Weigend                                        
              Phys. Chem. Chem. Phys. 8: 1057 (2006)            
                                                           
          Multipole accelerated RI-J (MARI-J):             
              Fast evaluation of the Coulomb potential for     
              electron densities using multipole accelerated   
              resolution of identity approximation             
              M. Sierka, A. Hogekamp and R. Ahlrichs           
              J. Chem. Phys. 118: 9136 (2003)                  
          RI-JK Method:                                     
              A fully direct RI-HF algorithm: Implementation,
              optimised auxiliary basis sets, demonstration of
              accuracy and efficiency                         
              F. Weigend                                      
              Phys. Chem. Chem. Phys. 4: 4285 (2002)           
          Two-component HF and DFT with spin-orbit coupling:  
              Self-consistent treatment of spin-orbit         
              interactions with efficient Hartree-Fock and    
              density functional methods                      
              M. K. Armbruster, F. Weigend, C. van Wüllen and 
              W. Klopper                                      
          Relativistic all-electron 2c calculations           
              An efficient implementation of two-component    
              relativistic exact-decoupling methods for large 
              molecules                                       
              D. Peng, N. Middendorf, F. Weigend, M. Reiher   
              J. Chem. Phys. 138, 184105 (2013)               
                                         


 


              +--------------------------------------------------+
              |      general information about current run       |
              +--------------------------------------------------+

 
 B-LYP functional
 exchange:    LDA + Becke (B88)  
 correlation: Lee-Yang-Parr (LYP)
 A DFT calculation using the RI-J approximation will be carried out.
 Allocatable memory for RI due to $ricore (MB):        2400
 Multipole approximation for Coulomb integrals is used


              +--------------------------------------------------+
              | Atomic coordinate, charge and isotop information |
              +--------------------------------------------------+

                    atomic coordinates            atom    charge  isotop
        -13.31195154    1.42716461   -8.71688244    c      6.000     0
        -12.89484809   -1.18479319   -8.42628158    c      6.000     0
        -13.08921349   -2.75469548  -10.56584365    c      6.000     0
        -13.67858070   -1.73892196  -12.93707994    c      6.000     0
        -14.09047401    0.86357135  -13.20433686    c      6.000     0
        -13.90698220    2.44324747  -11.08620345    c      6.000     0
        -12.25039145   -2.26984266   -5.88380993    c      6.000     0
        -14.07129810   -3.86667794   -4.77490148    c      6.000     0
        -13.83050170   -5.17285710   -2.51588163    n      7.000     0
        -15.98915953   -6.57157568   -2.02342381    c      6.000     0
        -17.69971109   -6.09414229   -4.08585648    c      6.000     0
        -16.54115935   -4.46177191   -5.74635407    c      6.000     0
        -16.41623422   -8.12999726    0.09584533    c      6.000     0
        -18.85790617   -9.57165836    0.12611468    c      6.000     0
        -19.34149610  -11.46829171   -1.67945083    c      6.000     0
        -21.61378485  -12.81038240   -1.66250295    c      6.000     0
        -23.46705494  -12.27543394    0.17158520    c      6.000     0
        -22.99656536  -10.38359338    1.98316687    c      6.000     0
        -20.72089023   -9.05358294    1.95904039    c      6.000     0
        -25.93110118  -13.64394468    0.28034911    c      6.000     0
        -26.18014202  -15.43050508   -1.60718801    o      8.000     0
        -19.57844084   -6.88625014   -4.24261225    h      1.000     0
        -17.31532875   -3.70542309   -7.48148463    h      1.000     0
        -14.74998623   -8.43708838    2.16955095    c      6.000     0
        -15.19460681  -10.23749989    4.22936345    c      6.000     0
        -13.21694819   -9.99018781    5.85520634    c      6.000     0
        -11.56266966   -8.03927441    4.79153626    c      6.000     0
        -12.51651301   -7.15250044    2.53628598    n      7.000     0
        -16.77812959  -11.52660878    4.37493730    h      1.000     0
         -9.29854447   -7.23077260    5.96646691    c      6.000     0
         -7.55474255   -5.50272002    4.93236471    c      6.000     0
         -7.67686232   -4.39796614    2.55913217    n      7.000     0
         -5.63247703   -2.80650420    2.17530204    c      6.000     0
         -4.14874965   -2.89996819    4.45480179    c      6.000     0
         -5.30935403   -4.52749924    6.11840504    c      6.000     0
        -12.87772004  -11.03633540    7.58187954    h      1.000     0
         -5.13492279   -1.36793354   -0.01192586    c      6.000     0
         -2.72019227    0.11844399   -0.02233749    c      6.000     0
         -2.76820765    2.78027126   -0.03766664    c      6.000     0
         -0.52915836    4.17643773   -0.04392708    c      6.000     0
          1.82305269    2.93118732   -0.04101556    c      6.000     0
          1.88592996    0.27134272   -0.03043972    c      6.000     0
         -0.35769957   -1.11209051   -0.01727126    c      6.000     0
         -2.43405745   -1.83040873    4.76755782    h      1.000     0
         -4.69754379   -5.00817331    8.00949376    h      1.000     0
          4.27537329    4.32440616   -0.05011066    c      6.000     0
          6.36520498    3.34222683   -0.03078443    o      8.000     0
        -27.59277934  -13.27459803    1.84049754    o      8.000     0
         -8.67993066   -8.27322055    8.53280674    c      6.000     0
         -6.59372758   -9.88753133    8.88134653    c      6.000     0
         -6.02469225  -10.85930939   11.27570142    c      6.000     0
         -7.52951296  -10.22651022   13.36095600    c      6.000     0
         -9.60848813   -8.61836229   13.03641236    c      6.000     0
        -10.18000735   -7.65163632   10.64096747    c      6.000     0
         -6.71421331   -1.20680692   -2.16833459    c      6.000     0
         -9.06557024   -2.29226038   -2.42300630    n      7.000     0
         -9.89382490   -1.61675057   -4.79765676    c      6.000     0
         -7.97881073   -0.10553814   -6.11006107    c      6.000     0
         -6.00607540    0.14994744   -4.47937174    c      6.000     0
         -8.12559461    0.61530401   -8.02036726    h      1.000     0
         -4.23216343    1.11773793   -4.80673949    h      1.000     0
          3.96634358    6.91606583   -0.08330068    o      8.000     0
         -7.08619151  -10.98209323   15.22400336    h      1.000     0
        -14.54950210    1.65466305  -15.04876980    h      1.000     0
        -12.31753516   -5.03090023   -1.32990234    h      1.000     0
         -9.13365613   -4.63648831    1.31940502    h      1.000     0
         -4.41134894  -12.11728910   11.51026979    h      1.000     0
         -5.42850078  -10.38640001    7.25950681    h      1.000     0
        -11.79630725   -6.40348001   10.38550230    h      1.000     0
        -10.78387023   -8.11103313   14.64926412    h      1.000     0
        -21.95516973  -14.27867269   -3.05799568    h      1.000     0
        -17.90876839  -11.89365564   -3.09332532    h      1.000     0
        -20.36629276   -7.59040191    3.36031428    h      1.000     0
        -24.43939556   -9.97344700    3.39004346    h      1.000     0
        -13.80629596   -2.97857923  -14.57617751    h      1.000     0
        -12.75983934   -4.77601886  -10.35954130    h      1.000     0
        -13.16719032    2.65254742   -7.07014622    h      1.000     0
        -14.23242129    4.46759242  -11.27631916    h      1.000     0
          3.70916213   -0.68029967   -0.04301032    h      1.000     0
         -0.29743173   -3.16868433   -0.01930342    h      1.000     0
         -4.58356884    3.74797898   -0.03889401    h      1.000     0
         -0.59625331    6.22989507   -0.04311490    h      1.000     0
        -27.84165644  -16.20933810   -1.35839751    h      1.000     0
          5.67262709    7.63580123   -0.08271670    h      1.000     0
 
       center of nuclear mass  :  -10.79443728   -4.71672954    0.04727035
       center of nuclear charge:  -10.79482905   -4.71616113    0.04518669

              +--------------------------------------------------+
              |               basis set information              |
              +--------------------------------------------------+

              we will work with the 1s 3p 5d 7f 9g ... basis set
              ...i.e. with spherical basis functions...

   type   atoms  prim   cont   basis
   ---------------------------------------------------------------------------
    c       46     34     19   TZVP   [5s3p1d|11s6p1d]
    n        4     34     19   TZVP   [5s3p1d|11s6p1d]
    o        4     34     19   TZVP   [5s3p1d|11s6p1d]
    h       30      8      6   TZVP   [3s1p|5s1p]
   ---------------------------------------------------------------------------
   total:   84   2076   1206
   ---------------------------------------------------------------------------

   total number of primitive shells          :   60
   total number of contracted shells         :  606
   total number of cartesian basis functions : 1260
   total number of SCF-basis functions       : 1206


 integral neglect threshold       :  0.26E-12
 integral storage threshold THIZE :  0.10E-04
 integral storage threshold THIME :         5

 RI-J AUXILIARY BASIS SET information:

              we will work with the 1s 3p 5d 7f 9g ... basis set
              ...i.e. with spherical basis functions...

   type   atoms  prim   cont   basis
   ---------------------------------------------------------------------------
    c       46     40     38   TZVP   [7s3p3d1f|9s3p3d1f]
    n        4     40     38   TZVP   [7s3p3d1f|9s3p3d1f]
    o        4     40     38   TZVP   [7s3p3d1f|9s3p3d1f]
    h       30     10      9   TZVP   [3s2p|4s2p]
   ---------------------------------------------------------------------------
   total:   84   2460   2322
   ---------------------------------------------------------------------------

   total number of primitive shells          :   54
   total number of contracted shells         :  906
   total number of cartesian basis functions : 2646
   total number of SCF-basis functions       : 2322


 symmetry group of the molecule :   c1 

 the group has the following generators :
   c1(z)

    1 symmetry operations found

 there are 1 real representations :   a   

 maximum number of shells which are related by symmetry :  1


    mo occupation :
   irrep   mo's   occupied
    a     1206      183
 
 number of basis functions   :         1206
 number of occupied orbitals :          183
 
  
           ------------------
           density functional
           ------------------
 B-LYP functional
 exchange:    LDA + Becke (B88)  
 correlation: Lee-Yang-Parr (LYP)
 iterations will be done with small grid
  
 spherical integration : Lebedev's spherical grid
 spherical gridsize    :           3
    i.e. gridpoints    :         302
 value for diffuse not defined
 radial integration    : Chebyshev 2nd kind (scaling 3)
 radial gridsize       :           3
 integration cells     :          84
 partition function    : becke
 partition sharpness   :           3
  

 biggest AO integral is expected to be     7.998976882
  
           ------------------------
               RI-J - INFORMATION
           ------------------------
 
    +---------------- Multipole Accelerated RI-J ---------------+
    -------------------------------------------------------------
      Number of bins for density partition        :  8
      Maximum multipole moment used               : 14
      Multipole precision parameter               :  1.0000E-08
      Threshold for moment summation              :  1.0000E-24
      Minimum separation between boxes            :  0.0000E+00
      Maximum allowed extent                      :  2.0000E+01
    +-----------------------------------------------------------+
 
 Extensions and centers of shell-pairs:
  number of shells with a single center:    67984
  number of shells with double centers:      4512
 Contributions to RI integral batches: 
  neglected integral batches:          111425
  multipole/direct contribution:        35243
  multipole/memory contribution:        37253
 Memory core needed for (P|Q) and Cholesky     42 MByte
 Memory core minimum needed except of (P|Q)     3 MByte
 Total minimum memory core needed (sum)        44 MByte
  
 ****************************************
 Memory allocated for RI-J  2400 MByte
 ****************************************
                                            

          ------------------------
          nuclear repulsion energy  :   6336.26611273    
          ------------------------

  _________________________________
 |                                 |
 |         DFTD3 V2.1 Rev 1        |
 | S.Grimme, University Muenster   |
 |        Tue May 10  2011         |
 |   see standalone version        |
 |       dftd3 -h for options      |
 |_________________________________|
 
 Please cite DFT-D3 work done with this code as:
 S. Grimme, J. Antony, S. Ehrlich and H. Krieg,
 J. Chem. Phys, 132 (2010), 154104.
 If used with BJ-damping cite also
 S. Grimme, S. Ehrlich and L. Goerigk,
 J. Comput. Chem. 32 (2011), 1456-1465
 For DFT-D2 the reference is
 S. Grimme, J. Comput. Chem., 27 (2006), 1787-1799
 
C6 coefficients used:
           2  C6 for element            1
Z=  1 CN= 0.912     C6(AA)=    3.03
Z=  1 CN= 0.000     C6(AA)=    7.59
           5  C6 for element            6
Z=  6 CN= 0.000     C6(AA)=   49.11
Z=  6 CN= 0.987     C6(AA)=   43.25
Z=  6 CN= 1.998     C6(AA)=   29.36
Z=  6 CN= 2.999     C6(AA)=   25.78
Z=  6 CN= 3.984     C6(AA)=   18.21
           4  C6 for element            7
Z=  7 CN= 0.000     C6(AA)=   25.27
Z=  7 CN= 0.994     C6(AA)=   22.12
Z=  7 CN= 2.014     C6(AA)=   19.68
Z=  7 CN= 2.990     C6(AA)=   15.58
           3  C6 for element            8
Z=  8 CN= 0.000     C6(AA)=   15.51
Z=  8 CN= 0.993     C6(AA)=   12.82
Z=  8 CN= 1.989     C6(AA)=   10.37

#           XYZ [au]              R0(AA) [Ang.]  CN          C6(AA)     C8(AA)   C10(AA) [au]
  1 -13.31195   1.42716  -8.71688   c   1.455  3.161        25.2       729.4     25842.3
  2 -12.89485  -1.18479  -8.42628   c   1.455  3.214        24.9       721.6     25564.7
  3 -13.08921  -2.75470 -10.56584   c   1.455  3.161        25.2       729.4     25843.4
  4 -13.67858  -1.73892 -12.93708   c   1.455  3.122        25.4       733.8     25998.9
  5 -14.09047   0.86357 -13.20434   c   1.455  3.122        25.4       733.8     25998.0
  6 -13.90698   2.44325 -11.08620   c   1.455  3.122        25.4       733.8     25998.5
  7 -12.25039  -2.26984  -5.88381   c   1.455  3.189        25.1       725.6     25706.1
  8 -14.07130  -3.86668  -4.77490   c   1.455  3.338        23.9       690.7     24469.5
  9 -13.83050  -5.17286  -2.51588   n   1.311  3.259        15.6       344.0      9295.7
 10 -15.98916  -6.57158  -2.02342   c   1.455  3.338        23.9       690.9     24477.4
 11 -17.69971  -6.09414  -4.08586   c   1.455  3.254        24.7       713.6     25283.2
 12 -16.54116  -4.46177  -5.74635   c   1.455  3.254        24.7       713.8     25287.8
 13 -16.41623  -8.13000   0.09585   c   1.455  3.188        25.1       725.7     25709.9
 14 -18.85791  -9.57166   0.12611   c   1.455  3.215        24.9       721.4     25557.2
 15 -19.34150 -11.46829  -1.67945   c   1.455  3.161        25.2       729.4     25842.6
 16 -21.61378 -12.81038  -1.66250   c   1.455  3.152        25.3       730.6     25883.1
 17 -23.46705 -12.27543   0.17159   c   1.455  3.169        25.2       728.4     25808.3
 18 -22.99657 -10.38359   1.98317   c   1.455  3.161        25.2       729.5     25844.1
 19 -20.72089  -9.05358   1.95904   c   1.455  3.160        25.2       729.5     25845.7
 20 -25.93110 -13.64394   0.28035   c   1.455  3.084        25.5       737.2     26116.8
 21 -26.18014 -15.43051  -1.60719   o   1.241  2.030        10.4       209.9      5189.0
 22 -19.57844  -6.88625  -4.24261   h   1.091  1.002         3.1        37.3       553.1
 23 -17.31533  -3.70542  -7.48148   h   1.091  1.002         3.1        37.3       553.1
 24 -14.74999  -8.43709   2.16955   c   1.455  3.410        23.0       664.4     23538.9
 25 -15.19461 -10.23750   4.22936   c   1.455  3.234        24.8       717.8     25430.9
 26 -13.21695  -9.99019   5.85521   c   1.455  3.234        24.8       717.8     25431.9
 27 -11.56267  -8.03927   4.79154   c   1.455  3.411        23.0       664.0     23526.1
 28 -12.51651  -7.15250   2.53629   n   1.311  2.202        19.3       425.9     11509.4
 29 -16.77813 -11.52661   4.37494   h   1.091  1.002         3.1        37.3       553.1
 30  -9.29854  -7.23077   5.96647   c   1.455  3.189        25.1       725.6     25706.4
 31  -7.55474  -5.50272   4.93236   c   1.455  3.338        23.9       690.7     24470.5
 32  -7.67686  -4.39797   2.55913   n   1.311  3.258        15.6       344.0      9295.7
 33  -5.63248  -2.80650   2.17530   c   1.455  3.338        23.9       691.0     24479.9
 34  -4.14875  -2.89997   4.45480   c   1.455  3.254        24.7       713.7     25284.1
 35  -5.30935  -4.52750   6.11841   c   1.455  3.254        24.7       713.8     25288.1
 36 -12.87772 -11.03634   7.58188   h   1.091  1.002         3.1        37.4       553.1
 37  -5.13492  -1.36793  -0.01193   c   1.455  3.188        25.1       725.6     25709.1
 38  -2.72019   0.11844  -0.02234   c   1.455  3.215        24.9       721.3     25555.5
 39  -2.76821   2.78027  -0.03767   c   1.455  3.161        25.2       729.4     25840.9
 40  -0.52916   4.17644  -0.04393   c   1.455  3.152        25.3       730.5     25881.2
 41   1.82305   2.93119  -0.04102   c   1.455  3.169        25.2       728.4     25807.3
 42   1.88593   0.27134  -0.03044   c   1.455  3.161        25.2       729.4     25843.4
 43  -0.35770  -1.11209  -0.01727   c   1.455  3.160        25.2       729.5     25845.1
 44  -2.43406  -1.83041   4.76756   h   1.091  1.002         3.1        37.3       553.1
 45  -4.69754  -5.00817   8.00949   h   1.091  1.002         3.1        37.3       553.1
 46   4.27537   4.32441  -0.05011   c   1.455  3.084        25.5       737.1     26116.6
 47   6.36520   3.34223  -0.03078   o   1.241  1.041        12.8       257.9      6374.7
 48 -27.59278 -13.27460   1.84050   o   1.241  1.041        12.8       257.9      6374.7
 49  -8.67993  -8.27322   8.53281   c   1.455  3.214        24.9       721.6     25564.1
 50  -6.59373  -9.88753   8.88135   c   1.455  3.161        25.2       729.5     25844.1
 51  -6.02469 -10.85931  11.27570   c   1.455  3.122        25.4       733.8     25998.3
 52  -7.52951 -10.22651  13.36096   c   1.455  3.122        25.4       733.8     25997.6
 53  -9.60849  -8.61836  13.03641   c   1.455  3.122        25.4       733.8     25998.5
 54 -10.18001  -7.65164  10.64097   c   1.455  3.161        25.2       729.4     25841.0
 55  -6.71421  -1.20681  -2.16833   c   1.455  3.410        23.0       664.3     23535.8
 56  -9.06557  -2.29226  -2.42301   n   1.311  2.202        19.3       425.9     11509.2
 57  -9.89382  -1.61675  -4.79766   c   1.455  3.411        23.0       664.0     23523.2
 58  -7.97881  -0.10554  -6.11006   c   1.455  3.234        24.8       717.8     25432.5
 59  -6.00608   0.14995  -4.47937   c   1.455  3.234        24.8       717.8     25429.8
 60  -8.12559   0.61530  -8.02037   h   1.091  1.002         3.1        37.4       553.1
 61  -4.23216   1.11774  -4.80674   h   1.091  1.002         3.1        37.3       553.1
 62   3.96634   6.91607  -0.08330   o   1.241  2.030        10.4       209.9      5189.0
 63  -7.08619 -10.98209  15.22400   h   1.091  1.002         3.1        37.3       553.1
 64 -14.54950   1.65466 -15.04877   h   1.091  1.002         3.1        37.3       553.1
 65 -12.31754  -5.03090  -1.32990   h   1.091  1.011         3.1        37.3       552.4
 66  -9.13366  -4.63649   1.31941   h   1.091  1.011         3.1        37.3       552.4
 67  -4.41135 -12.11729  11.51027   h   1.091  1.002         3.1        37.3       553.1
 68  -5.42850 -10.38640   7.25951   h   1.091  1.003         3.1        37.3       553.0
 69 -11.79631  -6.40348  10.38550   h   1.091  1.003         3.1        37.3       553.0
 70 -10.78387  -8.11103  14.64926   h   1.091  1.002         3.1        37.3       553.1
 71 -21.95517 -14.27867  -3.05800   h   1.091  1.003         3.1        37.3       553.0
 72 -17.90877 -11.89366  -3.09333   h   1.091  1.003         3.1        37.3       553.0
 73 -20.36629  -7.59040   3.36031   h   1.091  1.003         3.1        37.3       553.0
 74 -24.43940  -9.97345   3.39004   h   1.091  1.003         3.1        37.3       553.0
 75 -13.80630  -2.97858 -14.57618   h   1.091  1.002         3.1        37.3       553.1
 76 -12.75984  -4.77602 -10.35954   h   1.091  1.003         3.1        37.3       553.0
 77 -13.16719   2.65255  -7.07015   h   1.091  1.003         3.1        37.3       553.0
 78 -14.23242   4.46759 -11.27632   h   1.091  1.002         3.1        37.3       553.1
 79   3.70916  -0.68030  -0.04301   h   1.091  1.003         3.1        37.3       553.0
 80  -0.29743  -3.16868  -0.01930   h   1.091  1.003         3.1        37.3       553.0
 81  -4.58357   3.74798  -0.03889   h   1.091  1.003         3.1        37.3       553.0
 82  -0.59625   6.22990  -0.04311   h   1.091  1.003         3.1        37.3       553.0
 83 -27.84166 -16.20934  -1.35840   h   1.091  1.010         3.1        37.3       552.4
 84   5.67263   7.63580  -0.08272   h   1.091  1.010         3.1        37.3       552.4

molecular C6(AA) [au] =     97133.38

           DFT-D V3
 DF b-lyp                                             
 parameters
 s6       :    1.0000
 s8       :    1.6820
 rs6      :    1.0940
 rs18     :    1.0000
 alpha6   :   14.0000
 alpha8   :   16.0000
 k1-k3    :   16.0000    1.3333   -4.0000
 
 Edisp /kcal,au:   -76.7642 -0.12233152

 E6    /kcal :   -30.4974
 E8    /kcal :   -46.2668
 % E8        : 60.27
 nuclear repulsion energy                  =    6336.266112734
 empirical dispersive energy correction    =      -0.122331525
 nuclear repulsion + dispersion correction =    6336.143781209

 
          -----------------
          -S,T+V- integrals
          -----------------

 1e-integrals will be neglected if expon. factor < 0.265235E-13
 
   Difference densities algorithm switched on.
   The maximal number of linear combinations of
   difference densities is          20 .

 automatic virtual orbital shift switched on 
      shift if e(lumo)-e(homo) < 0.10000000    


 DIIS switched on: error vector is FDS-SDF
 Max. Iterations for DIIS is     :   4
 DIIS matrix (see manual) 
    Scaling factor of diagonals  :  1.200
    threshold for scaling factor :  0.000

 scf convergence criterion : increment of total energy < .1000000D-07
                  and increment of one-electron energy < .1000000D-04

  MOs are in ASCII format !


 reading orbital data $scfmo  from file mos . 

 orbital characterization : scfconv=8
 

 DSCF restart information will be dumped onto file mos


 Starting SCF iterations

          Overall gridpoints after grid construction =        117566

 ITERATION  ENERGY          1e-ENERGY        2e-ENERGY     NORM[dD(SAO)]  TOL
   1  -2290.9665694688    -15724.995052     7097.8847015    0.000D+00 0.265D-12
                            Exc = -322.418754819     Coul =  7420.30345629    
                              N = 365.99995637    
                            current damping = 4.000
 
          max. resid. norm for Fia-block=  3.474D-05 for orbital     23a         
          max. resid. fock norm         =  4.984D-04 for orbital   1154a         

 ITERATION  ENERGY          1e-ENERGY        2e-ENERGY     NORM[dD(SAO)]  TOL
   2  -2290.9665694910    -15724.995022     7097.8846715    0.888D-03 0.168D-12
                            Exc = -322.418752544     Coul =  7420.30342408    
                              N = 365.99995638    
                            current damping = 3.950
 
          Norm of current diis error: 0.50937E-03
          max. resid. norm for Fia-block=  2.779D-05 for orbital     23a         
          max. resid. fock norm         =  3.987D-04 for orbital   1154a         

 ENERGY CONVERGED !

          Overall gridpoints after grid construction =        424290

 ITERATION  ENERGY          1e-ENERGY        2e-ENERGY     NORM[dD(SAO)]  TOL
   3  -2290.9657734907    -15724.995017     7097.8854625    0.245D-03 0.118D-12
                            Exc = -322.417955661     Coul =  7420.30341818    
                              N = 366.00009321    
                            current damping = 3.900
 
          Norm of current diis error: 0.40952E-03
          max. resid. norm for Fia-block=  2.218D-05 for orbital     23a         
          max. resid. fock norm         =  3.182D-04 for orbital   1154a         

 End of SCF iterations

   convergence criteria satisfied after    3 iterations


                  ------------------------------------------ 
                 |  total energy      =  -2290.96577349070  |
                  ------------------------------------------ 
                 :  kinetic energy    =   2282.48398315551  :
                 :  potential energy  =  -4573.44975664621  :
                 :  virial theorem    =      1.99629772281  :
                 :  wavefunction norm =      1.00000000000  :
                  .......................................... 


 orbitals $scfmo  will be written to file mos

    irrep                179a        180a        181a        182a        183a   
 eigenvalues H         -0.22592    -0.21272    -0.20932    -0.18850    -0.17582
            eV          -6.1477     -5.7884     -5.6959     -5.1295     -4.7842
 occupation              2.0000      2.0000      2.0000      2.0000      2.0000 

    irrep                184a        185a        186a        187a        188a   
 eigenvalues H         -0.11369    -0.11136    -0.08921    -0.08610    -0.06393
            eV          -3.0937     -3.0303     -2.4275     -2.3430     -1.7397
 
 
 
 
 ==============================================================================
                           electrostatic moments
 ==============================================================================
 
              nuc           elec       ->  total
 ------------------------------------------------------------------------------
                          charge      
 ------------------------------------------------------------------------------
         366.000000    -366.000000      -0.000000
 
 ------------------------------------------------------------------------------
                       dipole moment  
 ------------------------------------------------------------------------------
   x   -3950.907433    3950.816985      -0.090448
   y   -1726.114974    1726.248261       0.133287
   z      16.538329     -16.942503      -0.404174
 
   | dipole moment | =     0.4351 a.u. =     1.1059 debye 
 
 ------------------------------------------------------------------------------
                     quadrupole moment
 ------------------------------------------------------------------------------
  xx   66640.754688  -66893.178297    -252.423609
  yy   19300.076993  -19516.708588    -216.631595
  zz   13311.235420  -13519.402219    -208.166800
  xy   30912.589214  -30914.822300      -2.233086
  xz    2805.798579   -2785.454428      20.344152
  yz   -5399.483976    5398.353210      -1.130765
 
     1/3  trace=    -225.740668
     anisotropy=      54.001320
 
 ==============================================================================
 


    ------------------------------------------------------------------------
         total  cpu-time :  2 minutes and 10 seconds
         total wall-time :  2 minutes and 12 seconds
    ------------------------------------------------------------------------


   ****  ridft : all done  ****


    2017-05-15 19:33:43.108 

fine, there is no data group "$actual step"
next step = rdgrad
 energy change  : actual value =  -0.1700E-07 threshold =   0.1000E-05
 geom. gradient : actual value =   0.9451E-04 threshold =   0.1000E-03

CONVERGENCY CRITERIA FULFILLED IN CYCLE 50

