 DBCSR| Multiplication driver                                               BLAS
 DBCSR| Multrec recursion limit                                              512
 DBCSR| Multiplication stack size                                           1000
 DBCSR| Maximum elements for images                                    UNLIMITED
 DBCSR| Multiplicative factor virtual images                                   1
 DBCSR| Multiplication size stacks                                             3
 DBCSR| Number of 3D layers                                               SINGLE
 DBCSR| Use MPI memory allocation                                              T
 DBCSR| Use RMA algorithm                                                      F
 DBCSR| Use Communication thread                                               T
 DBCSR| Communication thread load                                             87


  **** **** ******  **  PROGRAM STARTED AT               2021-09-29 11:48:02.466
 ***** ** ***  *** **   PROGRAM STARTED ON                                node18
 **    ****   ******    PROGRAM STARTED BY                                kbatra
 ***** **    ** ** **   PROGRAM PROCESS ID                                 55521
  **** **  *******  **  PROGRAM STARTED IN /home/kbatra/Projects_2021/Perc_MOFs/
                                           CP2K_PCE

 CP2K| version string:                                          CP2K version 6.1
 CP2K| source code revision number:                                    svn:18464
 CP2K| cp2kflags: libint fftw3 libxc parallel mpi3 scalapack has_no_shared_glibc
 CP2K|             libderiv_max_am1=6 libint_max_am=7 max_contr=4 mkl
 CP2K| is freely available from                            https://www.cp2k.org/
 CP2K| Program compiled at                      lun. sept. 16 15:42:56 CEST 2019
 CP2K| Program compiled on                          chesdens.lpmc.univ-montp2.fr
 CP2K| Program compiled for                                   Linux-x86-64-intel
 CP2K| Data directory path                   /home/psans/INSTALL/cp2k-6.1.W/data
 CP2K| Input file name                                         Input-GEO_OPT.inp
 
 GLOBAL| Force Environment number                                              1
 GLOBAL| Basis set file name                                      ./BASIS_MOLOPT
 GLOBAL| Potential file name                                    ./GTH_POTENTIALS
 GLOBAL| MM Potential file name                                     MM_POTENTIAL
 GLOBAL| Coordinate file name                               ./StructureInUse.xyz
 GLOBAL| Method name                                                        CP2K
 GLOBAL| Project name                                                GEO_OPT_PCE
 GLOBAL| Preferred FFT library                                             FFTW3
 GLOBAL| Preferred diagonalization lib.                                       SL
 GLOBAL| Run type                                                        GEO_OPT
 GLOBAL| All-to-all communication in single precision                          F
 GLOBAL| FFTs using library dependent lengths                                  F
 GLOBAL| Global print level                                                  LOW
 GLOBAL| Total number of message passing processes                            10
 GLOBAL| Number of threads for this process                                    1
 GLOBAL| This output is from process                                           0
 GLOBAL| CPU model name :  Intel(R) Xeon(R) CPU E5-2680 v2 @ 2.80GHz

 MEMORY| system memory details [Kb]
 MEMORY|                        rank 0           min           max       average
 MEMORY| MemTotal             32950464      32950464      32950464      32950464
 MEMORY| MemFree                217680        217680        217680        217680
 MEMORY| Buffers                  1000          1000          1000          1000
 MEMORY| Cached                  90908         90908         90908         90908
 MEMORY| Slab                   167648        167648        167648        167648
 MEMORY| SReclaimable           100648        100648        100648        100648
 MEMORY| MemLikelyFree          410236        410236        410236        410236

 
 GENERATE|  Preliminary Number of Bonds generated:                             0
 GENERATE|  Achieved consistency in connectivity generation.

 *******************************************************************************
 *******************************************************************************
 **                                                                           **
 **     #####                         ##              ##                      **
 **    ##   ##            ##          ##              ##                      **
 **   ##     ##                       ##            ######                    **
 **   ##     ##  ##   ##  ##   #####  ##  ##   ####   ##    #####    #####    **
 **   ##     ##  ##   ##  ##  ##      ## ##   ##      ##   ##   ##  ##   ##   **
 **   ##  ## ##  ##   ##  ##  ##      ####     ###    ##   ######   ######    **
 **    ##  ###   ##   ##  ##  ##      ## ##      ##   ##   ##       ##        **
 **     #######   #####   ##   #####  ##  ##  ####    ##    #####   ##        **
 **           ##                                                    ##        **
 **                                                                           **
 **                                                ... make the atoms dance   **
 **                                                                           **
 **            Copyright (C) by CP2K developers group (2000 - 2018)           **
 **                                                                           **
 *******************************************************************************


 TOTAL NUMBERS AND MAXIMUM NUMBERS

  Total number of            - Atomic kinds:                                   2
                             - Atoms:                                          6
                             - Shell sets:                                     6
                             - Shells:                                        48
                             - Primitive Cartesian functions:                 38
                             - Cartesian basis functions:                    144
                             - Spherical basis functions:                    132

  Maximum angular momentum of- Orbital basis functions:                        2
                             - Local part of the GTH pseudopotential:          2
                             - Non-local part of the GTH pseudopotential:      2


 SCF PARAMETERS         Density guess:                                   RESTART
                        --------------------------------------------------------
                        max_scf:                                             500
                        max_scf_history:                                       0
                        max_diis:                                              4
                        --------------------------------------------------------
                        eps_scf:                                        1.00E-06
                        eps_scf_history:                                0.00E+00
                        eps_diis:                                       1.00E-01
                        eps_eigval:                                     1.00E-05
                        --------------------------------------------------------
                        level_shift [a.u.]:                                 0.00
                        --------------------------------------------------------
                        Outer loop SCF in use 
                        No variables optimised in outer loop
                        eps_scf                                         1.00E-06
                        max_scf                                              500
                        No outer loop optimization
                        step_size                                       5.00E-01

 BFGS| Use rational function optimization for step estimation:                NO
 BFGS| Use model Hessian for initial guess:                                  YES
 BFGS| Restart Hessian:                                                       NO
 BFGS| Trust radius:                                                       0.189

 *******************************************************************************
 ***                     STARTING GEOMETRY OPTIMIZATION                      ***
 ***                                   BFGS                                  ***
 *******************************************************************************

 Number of electrons:                                                         36
 Number of occupied orbitals:                                                 18
 Number of molecular orbitals:                                                18

 Number of orbital functions:                                                132
 Number of independent orbital functions:                                    132

 Extrapolation method: initial_guess

 *** WARNING in qs_initial_guess.F:263 :: User requested to restart the   ***
 *** wavefunction from the file named: GEO_OPT_PCE-RESTART.wfn. This file ***
 *** does not exist. Please check the existence of the file or change     ***
 *** properly the value of the keyword WFN_RESTART_FILE_NAME. Calculation ***
 *** continues using ATOMIC GUESS.                                        ***



 SCF WAVEFUNCTION OPTIMIZATION

  ----------------------------------- OT ---------------------------------------
  Minimizer      : DIIS                : direct inversion
                                         in the iterative subspace
                                         using   7 DIIS vectors
                                         safer DIIS on
  Preconditioner : FULL_KINETIC        : inversion of T + eS
  Precond_solver : DEFAULT
  stepsize       :    0.15000000                  energy_gap     :    0.20000000
  eps_taylor     :   0.10000E-15                  max_taylor     :             4
  ----------------------------------- OT ---------------------------------------

  Step     Update method      Time    Convergence         Total energy    Change
  ------------------------------------------------------------------------------
     1 OT DIIS     0.15E+00   94.3     0.04732383       -69.0844481432 -6.91E+01
     2 OT DIIS     0.15E+00   13.1     0.03027474       -69.6996256391 -6.15E-01
     3 OT DIIS     0.15E+00    8.7     0.02330179       -70.0896485257 -3.90E-01
     4 OT DIIS     0.15E+00   11.2     0.01850155       -70.4329284241 -3.43E-01
     5 OT DIIS     0.15E+00    8.2     0.01474158       -70.7242514126 -2.91E-01
     6 OT DIIS     0.15E+00    8.4     0.01188889       -70.9358320409 -2.12E-01
     7 OT DIIS     0.15E+00    9.7     0.00875454       -71.1048924509 -1.69E-01
     8 OT DIIS     0.15E+00   15.5     0.00666645       -71.1925397689 -8.76E-02
     9 OT DIIS     0.15E+00    8.4     0.00456647       -71.2475791054 -5.50E-02
    10 OT DIIS     0.15E+00    9.9     0.00404866       -71.2627874474 -1.52E-02
    11 OT DIIS     0.15E+00    6.3     0.00261412       -71.2818059888 -1.90E-02
    12 OT DIIS     0.15E+00   11.0     0.00192257       -71.2911996478 -9.39E-03
    13 OT DIIS     0.15E+00   11.6     0.00133918       -71.2954463374 -4.25E-03
    14 OT DIIS     0.15E+00   13.8     0.00082923       -71.2978979001 -2.45E-03
    15 OT DIIS     0.15E+00    9.5     0.00061686       -71.2986587725 -7.61E-04
    16 OT DIIS     0.15E+00    6.2     0.00043291       -71.2991427800 -4.84E-04
    17 OT DIIS     0.15E+00   10.8     0.00031018       -71.2993547983 -2.12E-04
    18 OT DIIS     0.15E+00    2.4     0.00023069       -71.2994804721 -1.26E-04
    19 OT DIIS     0.15E+00    1.7     0.00014977       -71.2995692453 -8.88E-05
    20 OT DIIS     0.15E+00    1.7     0.00012120       -71.2995964105 -2.72E-05
    21 OT DIIS     0.15E+00    1.7     0.00010395       -71.2996113496 -1.49E-05
    22 OT DIIS     0.15E+00    1.7     0.00008832       -71.2996260286 -1.47E-05
    23 OT DIIS     0.15E+00    1.7     0.00007444       -71.2996402659 -1.42E-05
    24 OT DIIS     0.15E+00    1.7     0.00006364       -71.2996512243 -1.10E-05
    25 OT DIIS     0.15E+00    1.7     0.00005520       -71.2996599402 -8.72E-06
    26 OT DIIS     0.15E+00    1.7     0.00004838       -71.2996665794 -6.64E-06
    27 OT DIIS     0.15E+00    1.7     0.00004098       -71.2996730990 -6.52E-06
    28 OT DIIS     0.15E+00    1.7     0.00003414       -71.2996783103 -5.21E-06
    29 OT DIIS     0.15E+00    1.7     0.00002873       -71.2996816735 -3.36E-06
    30 OT DIIS     0.15E+00    1.7     0.00002416       -71.2996839762 -2.30E-06
    31 OT DIIS     0.15E+00    1.7     0.00002087       -71.2996853622 -1.39E-06
    32 OT DIIS     0.15E+00    1.7     0.00001747       -71.2996864309 -1.07E-06
    33 OT DIIS     0.15E+00    1.7     0.00001477       -71.2996871420 -7.11E-07
    34 OT DIIS     0.15E+00    1.7     0.00001231       -71.2996876589 -5.17E-07
    35 OT DIIS     0.15E+00    1.7     0.00001024       -71.2996880090 -3.50E-07
    36 OT DIIS     0.15E+00    1.7     0.00000850       -71.2996882408 -2.32E-07
    37 OT DIIS     0.15E+00    1.7     0.00000732       -71.2996883692 -1.28E-07
    38 OT DIIS     0.15E+00    1.7     0.00000642       -71.2996884554 -8.62E-08
    39 OT DIIS     0.15E+00    1.7     0.00000578       -71.2996885116 -5.62E-08
    40 OT DIIS     0.15E+00    1.7     0.00000515       -71.2996885631 -5.16E-08
    41 OT DIIS     0.15E+00    1.7     0.00000460       -71.2996886066 -4.35E-08
    42 OT DIIS     0.15E+00    1.7     0.00000410       -71.2996886447 -3.81E-08
    43 OT DIIS     0.15E+00    1.7     0.00000372       -71.2996886732 -2.85E-08
    44 OT DIIS     0.15E+00    1.7     0.00000338       -71.2996886979 -2.47E-08
    45 OT DIIS     0.15E+00    1.7     0.00000306       -71.2996887192 -2.13E-08
    46 OT DIIS     0.15E+00    1.7     0.00000278       -71.2996887379 -1.87E-08
    47 OT DIIS     0.15E+00    1.7     0.00000250       -71.2996887539 -1.60E-08
    48 OT DIIS     0.15E+00    1.7     0.00000219       -71.2996887698 -1.59E-08
    49 OT DIIS     0.15E+00    1.7     0.00000189       -71.2996887818 -1.20E-08
    50 OT DIIS     0.15E+00    1.7     0.00000164       -71.2996887903 -8.52E-09
    51 OT DIIS     0.15E+00    1.7     0.00000145       -71.2996887956 -5.27E-09
    52 OT DIIS     0.15E+00    1.7     0.00000127       -71.2996887995 -3.91E-09
    53 OT DIIS     0.15E+00    1.7     0.00000111       -71.2996888025 -3.05E-09
    54 OT DIIS     0.15E+00    1.7     0.00000097       -71.2996888048 -2.25E-09

  *** SCF run converged in    54 steps ***


  Electronic density on regular grids:        -36.0000000000        0.0000000000
  Core density on regular grids:               36.0000000000       -0.0000000000
  Total charge density on r-space grids:       -0.0000000000
  Total charge density g-space grids:          -0.0000000000

  Overlap energy of the core charge distribution:               0.00000058965155
  Self energy of the core charge distribution:               -161.52508704299413
  Core Hamiltonian energy:                                     39.08126278596784
  Hartree energy:                                              66.21991825173563
  Exchange-correlation energy:                                -15.05973275200349
  Dispersion energy:                                           -0.01605063714767

  Total energy:                                               -71.29968880479025

  outer SCF iter =    1 RMS gradient =   0.97E-06 energy =        -71.2996888048
  outer SCF loop converged in   1 iterations or   54 steps


 ENERGY| Total FORCE_EVAL ( QS ) energy (a.u.):              -71.299688806334970


 --------  Informations at step =     0 ------------
  Optimization Method        =                 BFGS
  Total Energy               =       -71.2996888063
  Used time                  =              384.296
 ---------------------------------------------------

 --------------------------
 OPTIMIZATION STEP:      1
 --------------------------

 Number of electrons:                                                         36
 Number of occupied orbitals:                                                 18
 Number of molecular orbitals:                                                18

 Number of orbital functions:                                                132
 Number of independent orbital functions:                                    132

 Extrapolation method: ASPC


 SCF WAVEFUNCTION OPTIMIZATION

  ----------------------------------- OT ---------------------------------------
  Minimizer      : DIIS                : direct inversion
                                         in the iterative subspace
                                         using   7 DIIS vectors
                                         safer DIIS on
  Preconditioner : FULL_KINETIC        : inversion of T + eS
  Precond_solver : DEFAULT
  stepsize       :    0.15000000                  energy_gap     :    0.20000000
  eps_taylor     :   0.10000E-15                  max_taylor     :             4
  ----------------------------------- OT ---------------------------------------

  Step     Update method      Time    Convergence         Total energy    Change
  ------------------------------------------------------------------------------
     1 OT DIIS     0.15E+00    3.0     0.00018492       -71.2997301355 -7.13E+01
     2 OT DIIS     0.15E+00    1.8     0.00011650       -71.2997398389 -9.70E-06
     3 OT DIIS     0.15E+00    1.8     0.00006383       -71.2997465803 -6.74E-06
     4 OT DIIS     0.15E+00    1.8     0.00004253       -71.2997491609 -2.58E-06
     5 OT DIIS     0.15E+00    1.8     0.00002527       -71.2997507361 -1.58E-06
     6 OT DIIS     0.15E+00    1.8     0.00001510       -71.2997513559 -6.20E-07
     7 OT DIIS     0.15E+00    1.8     0.00000846       -71.2997515916 -2.36E-07
     8 OT DIIS     0.15E+00    1.8     0.00000520       -71.2997516592 -6.75E-08
     9 OT DIIS     0.15E+00    1.8     0.00000288       -71.2997516864 -2.73E-08
    10 OT DIIS     0.15E+00    1.8     0.00000175       -71.2997516937 -7.28E-09
    11 OT DIIS     0.15E+00    1.8     0.00000105       -71.2997516964 -2.69E-09
    12 OT DIIS     0.15E+00    1.8     0.00000070       -71.2997516973 -9.02E-10

  *** SCF run converged in    12 steps ***


  Electronic density on regular grids:        -36.0000000000       -0.0000000000
  Core density on regular grids:               36.0000000000       -0.0000000000
  Total charge density on r-space grids:       -0.0000000000
  Total charge density g-space grids:          -0.0000000000

  Overlap energy of the core charge distribution:               0.00000066552996
  Self energy of the core charge distribution:               -161.52508704299413
  Core Hamiltonian energy:                                     39.09730005920276
  Hartree energy:                                              66.20831045817690
  Exchange-correlation energy:                                -15.06411992015498
  Dispersion energy:                                           -0.01615591705017

  Total energy:                                               -71.29975169728966

  outer SCF iter =    1 RMS gradient =   0.70E-06 energy =        -71.2997516973
  outer SCF loop converged in   1 iterations or   12 steps


 ENERGY| Total FORCE_EVAL ( QS ) energy (a.u.):              -71.299751697730343


 --------  Informations at step =     1 ------------
  Optimization Method        =                 BFGS
  Total Energy               =       -71.2997516977
  Real energy change         =        -0.0000628914
  Predicted change in energy =        -0.0000486806
  Scaling factor             =         0.0000000000
  Step size                  =         0.0069806613
  Trust radius               =         0.1889726133
  Decrease in energy         =                  YES
  Used time                  =               39.230

  Convergence check :
  Max. step size             =         0.0069806613
  Conv. limit for step size  =         0.0002000000
  Convergence in step size   =                   NO
  RMS step size              =         0.0029135577
  Conv. limit for RMS step   =         0.0001000000
  Convergence in RMS step    =                   NO
  Max. gradient              =         0.0023504297
  Conv. limit for gradients  =         0.0002000000
  Conv. for gradients        =                   NO
  RMS gradient               =         0.0007727895
  Conv. limit for RMS grad.  =         0.0001000000
  Conv. for gradients        =                   NO
 ---------------------------------------------------

 --------------------------
 OPTIMIZATION STEP:      2
 --------------------------

 Number of electrons:                                                         36
 Number of occupied orbitals:                                                 18
 Number of molecular orbitals:                                                18

 Number of orbital functions:                                                132
 Number of independent orbital functions:                                    132

 Extrapolation method: ASPC


 SCF WAVEFUNCTION OPTIMIZATION

  ----------------------------------- OT ---------------------------------------
  Minimizer      : DIIS                : direct inversion
                                         in the iterative subspace
                                         using   7 DIIS vectors
                                         safer DIIS on
  Preconditioner : FULL_KINETIC        : inversion of T + eS
  Precond_solver : DEFAULT
  stepsize       :    0.15000000                  energy_gap     :    0.20000000
  eps_taylor     :   0.10000E-15                  max_taylor     :             4
  ----------------------------------- OT ---------------------------------------

  Step     Update method      Time    Convergence         Total energy    Change
  ------------------------------------------------------------------------------
     1 OT DIIS     0.15E+00    4.3     0.00012017       -71.2997479144 -7.13E+01
     2 OT DIIS     0.15E+00    1.8     0.00007874       -71.2997520786 -4.16E-06
     3 OT DIIS     0.15E+00    1.8     0.00004515       -71.2997553156 -3.24E-06
     4 OT DIIS     0.15E+00    1.8     0.00003019       -71.2997566925 -1.38E-06
     5 OT DIIS     0.15E+00    1.8     0.00001781       -71.2997575333 -8.41E-07
     6 OT DIIS     0.15E+00    1.8     0.00001054       -71.2997578495 -3.16E-07
     7 OT DIIS     0.15E+00    1.8     0.00000591       -71.2997579639 -1.14E-07
     8 OT DIIS     0.15E+00    1.8     0.00000361       -71.2997579965 -3.26E-08
     9 OT DIIS     0.15E+00    1.8     0.00000203       -71.2997580093 -1.28E-08
    10 OT DIIS     0.15E+00    1.8     0.00000125       -71.2997580129 -3.54E-09
    11 OT DIIS     0.15E+00    1.8     0.00000077       -71.2997580142 -1.33E-09

  *** SCF run converged in    11 steps ***


  Electronic density on regular grids:        -36.0000000000        0.0000000000
  Core density on regular grids:               36.0000000000       -0.0000000000
  Total charge density on r-space grids:       -0.0000000000
  Total charge density g-space grids:          -0.0000000000

  Overlap energy of the core charge distribution:               0.00000070275678
  Self energy of the core charge distribution:               -161.52508704299413
  Core Hamiltonian energy:                                     39.10441089860731
  Hartree energy:                                              66.20317657467248
  Exchange-correlation energy:                                -15.06605719488200
  Dispersion energy:                                           -0.01620195235761

  Total energy:                                               -71.29975801419718

  outer SCF iter =    1 RMS gradient =   0.77E-06 energy =        -71.2997580142
  outer SCF loop converged in   1 iterations or   11 steps


 ENERGY| Total FORCE_EVAL ( QS ) energy (a.u.):              -71.299758014677479


 --------  Informations at step =     2 ------------
  Optimization Method        =                 BFGS
  Total Energy               =       -71.2997580147
  Real energy change         =        -0.0000063169
  Predicted change in energy =        -0.0000064906
  Scaling factor             =         0.0000000000
  Step size                  =         0.0024600176
  Trust radius               =         0.1889726133
  Decrease in energy         =                  YES
  Used time                  =               29.700

  Convergence check :
  Max. step size             =         0.0024600176
  Conv. limit for step size  =         0.0002000000
  Convergence in step size   =                   NO
  RMS step size              =         0.0012584125
  Conv. limit for RMS step   =         0.0001000000
  Convergence in RMS step    =                   NO
  Max. gradient              =         0.0001892719
  Conv. limit for gradients  =         0.0002000000
  Conv. in gradients         =                  YES
  RMS gradient               =         0.0000611925
  Conv. limit for RMS grad.  =         0.0001000000
  Conv. in RMS gradients     =                  YES
 ---------------------------------------------------

 --------------------------
 OPTIMIZATION STEP:      3
 --------------------------

 Number of electrons:                                                         36
 Number of occupied orbitals:                                                 18
 Number of molecular orbitals:                                                18

 Number of orbital functions:                                                132
 Number of independent orbital functions:                                    132

 Extrapolation method: ASPC


 SCF WAVEFUNCTION OPTIMIZATION

  ----------------------------------- OT ---------------------------------------
  Minimizer      : DIIS                : direct inversion
                                         in the iterative subspace
                                         using   7 DIIS vectors
                                         safer DIIS on
  Preconditioner : FULL_KINETIC        : inversion of T + eS
  Precond_solver : DEFAULT
  stepsize       :    0.15000000                  energy_gap     :    0.20000000
  eps_taylor     :   0.10000E-15                  max_taylor     :             4
  ----------------------------------- OT ---------------------------------------

  Step     Update method      Time    Convergence         Total energy    Change
  ------------------------------------------------------------------------------
     1 OT DIIS     0.15E+00    2.0     0.00006010       -71.2997552639 -7.13E+01
     2 OT DIIS     0.15E+00    1.8     0.00004177       -71.2997563365 -1.07E-06
     3 OT DIIS     0.15E+00    1.8     0.00002396       -71.2997573519 -1.02E-06
     4 OT DIIS     0.15E+00    1.8     0.00001449       -71.2997578126 -4.61E-07
     5 OT DIIS     0.15E+00    1.8     0.00000828       -71.2997580121 -2.00E-07
     6 OT DIIS     0.15E+00    1.8     0.00000492       -71.2997580754 -6.33E-08
     7 OT DIIS     0.15E+00    1.8     0.00000306       -71.2997580975 -2.21E-08
     8 OT DIIS     0.15E+00    1.8     0.00000189       -71.2997581065 -8.97E-09
     9 OT DIIS     0.15E+00    1.8     0.00000112       -71.2997581100 -3.53E-09
    10 OT DIIS     0.15E+00    1.8     0.00000069       -71.2997581111 -1.14E-09

  *** SCF run converged in    10 steps ***


  Electronic density on regular grids:        -36.0000000000        0.0000000000
  Core density on regular grids:               36.0000000000       -0.0000000000
  Total charge density on r-space grids:       -0.0000000000
  Total charge density g-space grids:          -0.0000000000

  Overlap energy of the core charge distribution:               0.00000070245425
  Self energy of the core charge distribution:               -161.52508704299413
  Core Hamiltonian energy:                                     39.10426297995880
  Hartree energy:                                              66.20328320453515
  Exchange-correlation energy:                                -15.06601708976079
  Dispersion energy:                                           -0.01620086532885

  Total energy:                                               -71.29975811113556

  outer SCF iter =    1 RMS gradient =   0.69E-06 energy =        -71.2997581111
  outer SCF loop converged in   1 iterations or   10 steps


 ENERGY| Total FORCE_EVAL ( QS ) energy (a.u.):              -71.299758111537685


 --------  Informations at step =     3 ------------
  Optimization Method        =                 BFGS
  Total Energy               =       -71.2997581115
  Real energy change         =        -0.0000000969
  Predicted change in energy =        -0.0000001003
  Scaling factor             =         0.0000000000
  Step size                  =         0.0005627104
  Trust radius               =         0.1889726133
  Decrease in energy         =                  YES
  Used time                  =               31.076

  Convergence check :
  Max. step size             =         0.0005627104
  Conv. limit for step size  =         0.0002000000
  Convergence in step size   =                   NO
  RMS step size              =         0.0002976432
  Conv. limit for RMS step   =         0.0001000000
  Convergence in RMS step    =                   NO
  Max. gradient              =         0.0000835006
  Conv. limit for gradients  =         0.0002000000
  Conv. in gradients         =                  YES
  RMS gradient               =         0.0000307556
  Conv. limit for RMS grad.  =         0.0001000000
  Conv. in RMS gradients     =                  YES
 ---------------------------------------------------

 --------------------------
 OPTIMIZATION STEP:      4
 --------------------------

 Number of electrons:                                                         36
 Number of occupied orbitals:                                                 18
 Number of molecular orbitals:                                                18

 Number of orbital functions:                                                132
 Number of independent orbital functions:                                    132

 Extrapolation method: ASPC


 SCF WAVEFUNCTION OPTIMIZATION

  ----------------------------------- OT ---------------------------------------
  Minimizer      : DIIS                : direct inversion
                                         in the iterative subspace
                                         using   7 DIIS vectors
                                         safer DIIS on
  Preconditioner : FULL_KINETIC        : inversion of T + eS
  Precond_solver : DEFAULT
  stepsize       :    0.15000000                  energy_gap     :    0.20000000
  eps_taylor     :   0.10000E-15                  max_taylor     :             4
  ----------------------------------- OT ---------------------------------------

  Step     Update method      Time    Convergence         Total energy    Change
  ------------------------------------------------------------------------------
     1 OT DIIS     0.15E+00    6.8     0.00005949       -71.2997556310 -7.13E+01
     2 OT DIIS     0.15E+00    1.8     0.00003958       -71.2997566602 -1.03E-06
     3 OT DIIS     0.15E+00    1.8     0.00002235       -71.2997575041 -8.44E-07
     4 OT DIIS     0.15E+00    1.8     0.00001431       -71.2997578574 -3.53E-07
     5 OT DIIS     0.15E+00    1.8     0.00000803       -71.2997580468 -1.89E-07
     6 OT DIIS     0.15E+00    1.8     0.00000471       -71.2997581069 -6.01E-08
     7 OT DIIS     0.15E+00    1.8     0.00000278       -71.2997581280 -2.11E-08
     8 OT DIIS     0.15E+00    1.8     0.00000171       -71.2997581352 -7.23E-09
     9 OT DIIS     0.15E+00    1.8     0.00000098       -71.2997581381 -2.96E-09

  *** SCF run converged in     9 steps ***


  Electronic density on regular grids:        -36.0000000000        0.0000000000
  Core density on regular grids:               36.0000000000       -0.0000000000
  Total charge density on r-space grids:       -0.0000000000
  Total charge density g-space grids:          -0.0000000000

  Overlap energy of the core charge distribution:               0.00000070214690
  Self energy of the core charge distribution:               -161.52508704299413
  Core Hamiltonian energy:                                     39.10412849301187
  Hartree energy:                                              66.20338029714790
  Exchange-correlation energy:                                -15.06598055959347
  Dispersion energy:                                           -0.01620002786423

  Total energy:                                               -71.29975813814515

  outer SCF iter =    1 RMS gradient =   0.98E-06 energy =        -71.2997581381
  outer SCF loop converged in   1 iterations or    9 steps


 ENERGY| Total FORCE_EVAL ( QS ) energy (a.u.):              -71.299758138999280


 --------  Informations at step =     4 ------------
  Optimization Method        =                 BFGS
  Total Energy               =       -71.2997581390
  Real energy change         =        -0.0000000275
  Predicted change in energy =        -0.0000000198
  Scaling factor             =         0.0000000000
  Step size                  =         0.0002487414
  Trust radius               =         0.1889726133
  Decrease in energy         =                  YES
  Used time                  =               38.309

  Convergence check :
  Max. step size             =         0.0002487414
  Conv. limit for step size  =         0.0002000000
  Convergence in step size   =                   NO
  RMS step size              =         0.0001199870
  Conv. limit for RMS step   =         0.0001000000
  Convergence in RMS step    =                   NO
  Max. gradient              =         0.0000499817
  Conv. limit for gradients  =         0.0002000000
  Conv. in gradients         =                  YES
  RMS gradient               =         0.0000181742
  Conv. limit for RMS grad.  =         0.0001000000
  Conv. in RMS gradients     =                  YES
 ---------------------------------------------------

 --------------------------
 OPTIMIZATION STEP:      5
 --------------------------

 Number of electrons:                                                         36
 Number of occupied orbitals:                                                 18
 Number of molecular orbitals:                                                18

 Number of orbital functions:                                                132
 Number of independent orbital functions:                                    132

 Extrapolation method: ASPC


 SCF WAVEFUNCTION OPTIMIZATION

  ----------------------------------- OT ---------------------------------------
  Minimizer      : DIIS                : direct inversion
                                         in the iterative subspace
                                         using   7 DIIS vectors
                                         safer DIIS on
  Preconditioner : FULL_KINETIC        : inversion of T + eS
  Precond_solver : DEFAULT
  stepsize       :    0.15000000                  energy_gap     :    0.20000000
  eps_taylor     :   0.10000E-15                  max_taylor     :             4
  ----------------------------------- OT ---------------------------------------

  Step     Update method      Time    Convergence         Total energy    Change
  ------------------------------------------------------------------------------
     1 OT DIIS     0.15E+00    1.9     0.00003622       -71.2997572241 -7.13E+01
     2 OT DIIS     0.15E+00    1.8     0.00002414       -71.2997576058 -3.82E-07
     3 OT DIIS     0.15E+00    1.8     0.00001364       -71.2997579201 -3.14E-07
     4 OT DIIS     0.15E+00    1.8     0.00000874       -71.2997580512 -1.31E-07
     5 OT DIIS     0.15E+00    1.8     0.00000476       -71.2997581218 -7.06E-08
     6 OT DIIS     0.15E+00    1.8     0.00000272       -71.2997581426 -2.08E-08
     7 OT DIIS     0.15E+00    1.8     0.00000160       -71.2997581492 -6.67E-09
     8 OT DIIS     0.15E+00    1.8     0.00000100       -71.2997581515 -2.28E-09

  *** SCF run converged in     8 steps ***


  Electronic density on regular grids:        -36.0000000000        0.0000000000
  Core density on regular grids:               36.0000000000       -0.0000000000
  Total charge density on r-space grids:       -0.0000000000
  Total charge density g-space grids:          -0.0000000000

  Overlap energy of the core charge distribution:               0.00000070213840
  Self energy of the core charge distribution:               -161.52508704299413
  Core Hamiltonian energy:                                     39.10406308981087
  Hartree energy:                                              66.20342690370637
  Exchange-correlation energy:                                -15.06596217705291
  Dispersion energy:                                           -0.01619962711716

  Total energy:                                               -71.29975815150856

  outer SCF iter =    1 RMS gradient =   0.10E-05 energy =        -71.2997581515
  outer SCF loop converged in   1 iterations or    8 steps


 ENERGY| Total FORCE_EVAL ( QS ) energy (a.u.):              -71.299758152476045


 --------  Informations at step =     5 ------------
  Optimization Method        =                 BFGS
  Total Energy               =       -71.2997581525
  Real energy change         =        -0.0000000135
  Predicted change in energy =        -0.0000000105
  Scaling factor             =         0.0000000000
  Step size                  =         0.0002596766
  Trust radius               =         0.1889726133
  Decrease in energy         =                  YES
  Used time                  =               39.077

  Convergence check :
  Max. step size             =         0.0002596766
  Conv. limit for step size  =         0.0002000000
  Convergence in step size   =                   NO
  RMS step size              =         0.0001245769
  Conv. limit for RMS step   =         0.0001000000
  Convergence in RMS step    =                   NO
  Max. gradient              =         0.0000152627
  Conv. limit for gradients  =         0.0002000000
  Conv. in gradients         =                  YES
  RMS gradient               =         0.0000079183
  Conv. limit for RMS grad.  =         0.0001000000
  Conv. in RMS gradients     =                  YES
 ---------------------------------------------------

 --------------------------
 OPTIMIZATION STEP:      6
 --------------------------

 Number of electrons:                                                         36
 Number of occupied orbitals:                                                 18
 Number of molecular orbitals:                                                18

 Number of orbital functions:                                                132
 Number of independent orbital functions:                                    132

 Extrapolation method: ASPC


 SCF WAVEFUNCTION OPTIMIZATION

  ----------------------------------- OT ---------------------------------------
  Minimizer      : DIIS                : direct inversion
                                         in the iterative subspace
                                         using   7 DIIS vectors
                                         safer DIIS on
  Preconditioner : FULL_KINETIC        : inversion of T + eS
  Precond_solver : DEFAULT
  stepsize       :    0.15000000                  energy_gap     :    0.20000000
  eps_taylor     :   0.10000E-15                  max_taylor     :             4
  ----------------------------------- OT ---------------------------------------

  Step     Update method      Time    Convergence         Total energy    Change
  ------------------------------------------------------------------------------
     1 OT DIIS     0.15E+00    2.6     0.00000919       -71.2997580910 -7.13E+01
     2 OT DIIS     0.15E+00    1.8     0.00000638       -71.2997581160 -2.50E-08
     3 OT DIIS     0.15E+00    1.8     0.00000375       -71.2997581392 -2.32E-08
     4 OT DIIS     0.15E+00    1.8     0.00000242       -71.2997581495 -1.03E-08
     5 OT DIIS     0.15E+00    1.8     0.00000126       -71.2997581553 -5.75E-09
     6 OT DIIS     0.15E+00    1.8     0.00000080       -71.2997581567 -1.41E-09

  *** SCF run converged in     6 steps ***


  Electronic density on regular grids:        -36.0000000000        0.0000000000
  Core density on regular grids:               36.0000000000       -0.0000000000
  Total charge density on r-space grids:       -0.0000000000
  Total charge density g-space grids:          -0.0000000000

  Overlap energy of the core charge distribution:               0.00000070224688
  Self energy of the core charge distribution:               -161.52508704299413
  Core Hamiltonian energy:                                     39.10405819991829
  Hartree energy:                                              66.20342682381353
  Exchange-correlation energy:                                -15.06595721480358
  Dispersion energy:                                           -0.01619962485133

  Total energy:                                               -71.29975815667035

  outer SCF iter =    1 RMS gradient =   0.80E-06 energy =        -71.2997581567
  outer SCF loop converged in   1 iterations or    6 steps


 ENERGY| Total FORCE_EVAL ( QS ) energy (a.u.):              -71.299758157261877


 --------  Informations at step =     6 ------------
  Optimization Method        =                 BFGS
  Total Energy               =       -71.2997581573
  Real energy change         =        -0.0000000048
  Predicted change in energy =        -0.0000000045
  Scaling factor             =         0.0000000000
  Step size                  =         0.0002055126
  Trust radius               =         0.1889726133
  Decrease in energy         =                  YES
  Used time                  =               24.614

  Convergence check :
  Max. step size             =         0.0002055126
  Conv. limit for step size  =         0.0002000000
  Convergence in step size   =                   NO
  RMS step size              =         0.0001016936
  Conv. limit for RMS step   =         0.0001000000
  Convergence in RMS step    =                   NO
  Max. gradient              =         0.0000157379
  Conv. limit for gradients  =         0.0002000000
  Conv. in gradients         =                  YES
  RMS gradient               =         0.0000061230
  Conv. limit for RMS grad.  =         0.0001000000
  Conv. in RMS gradients     =                  YES
 ---------------------------------------------------

 --------------------------
 OPTIMIZATION STEP:      7
 --------------------------

 Number of electrons:                                                         36
 Number of occupied orbitals:                                                 18
 Number of molecular orbitals:                                                18

 Number of orbital functions:                                                132
 Number of independent orbital functions:                                    132

 Extrapolation method: ASPC


 SCF WAVEFUNCTION OPTIMIZATION

  ----------------------------------- OT ---------------------------------------
  Minimizer      : DIIS                : direct inversion
                                         in the iterative subspace
                                         using   7 DIIS vectors
                                         safer DIIS on
  Preconditioner : FULL_KINETIC        : inversion of T + eS
  Precond_solver : DEFAULT
  stepsize       :    0.15000000                  energy_gap     :    0.20000000
  eps_taylor     :   0.10000E-15                  max_taylor     :             4
  ----------------------------------- OT ---------------------------------------

  Step     Update method      Time    Convergence         Total energy    Change
  ------------------------------------------------------------------------------
     1 OT DIIS     0.15E+00    2.7     0.00000528       -71.2997581358 -7.13E+01
     2 OT DIIS     0.15E+00    1.8     0.00000383       -71.2997581443 -8.44E-09
     3 OT DIIS     0.15E+00    1.8     0.00000218       -71.2997581535 -9.26E-09
     4 OT DIIS     0.15E+00    1.8     0.00000125       -71.2997581576 -4.08E-09
     5 OT DIIS     0.15E+00    1.8     0.00000077       -71.2997581590 -1.37E-09

  *** SCF run converged in     5 steps ***


  Electronic density on regular grids:        -36.0000000000        0.0000000000
  Core density on regular grids:               36.0000000000       -0.0000000000
  Total charge density on r-space grids:       -0.0000000000
  Total charge density g-space grids:          -0.0000000000

  Overlap energy of the core charge distribution:               0.00000070225214
  Self energy of the core charge distribution:               -161.52508704299413
  Core Hamiltonian energy:                                     39.10405676648124
  Hartree energy:                                              66.20342831193827
  Exchange-correlation energy:                                -15.06595721972578
  Dispersion energy:                                           -0.01619967691490

  Total energy:                                               -71.29975815896316

  outer SCF iter =    1 RMS gradient =   0.77E-06 energy =        -71.2997581590
  outer SCF loop converged in   1 iterations or    5 steps


 ENERGY| Total FORCE_EVAL ( QS ) energy (a.u.):              -71.299758159522185


 --------  Informations at step =     7 ------------
  Optimization Method        =                 BFGS
  Total Energy               =       -71.2997581595
  Real energy change         =        -0.0000000023
  Predicted change in energy =        -0.0000000018
  Scaling factor             =         0.0000000000
  Step size                  =         0.0001544389
  Trust radius               =         0.1889726133
  Decrease in energy         =                  YES
  Used time                  =               18.091

  Convergence check :
  Max. step size             =         0.0001544389
  Conv. limit for step size  =         0.0002000000
  Convergence in step size   =                  YES
  RMS step size              =         0.0000706960
  Conv. limit for RMS step   =         0.0001000000
  Convergence in RMS step    =                  YES
  Max. gradient              =         0.0000176456
  Conv. limit for gradients  =         0.0002000000
  Conv. in gradients         =                  YES
  RMS gradient               =         0.0000078459
  Conv. limit for RMS grad.  =         0.0001000000
  Conv. in RMS gradients     =                  YES
 ---------------------------------------------------

 *******************************************************************************
 ***                    GEOMETRY OPTIMIZATION COMPLETED                      ***
 *******************************************************************************

                    Reevaluating energy at the minimum

 Number of electrons:                                                         36
 Number of occupied orbitals:                                                 18
 Number of molecular orbitals:                                                18

 Number of orbital functions:                                                132
 Number of independent orbital functions:                                    132

 Extrapolation method: ASPC


 SCF WAVEFUNCTION OPTIMIZATION

  ----------------------------------- OT ---------------------------------------
  Minimizer      : DIIS                : direct inversion
                                         in the iterative subspace
                                         using   7 DIIS vectors
                                         safer DIIS on
  Preconditioner : FULL_KINETIC        : inversion of T + eS
  Precond_solver : DEFAULT
  stepsize       :    0.15000000                  energy_gap     :    0.20000000
  eps_taylor     :   0.10000E-15                  max_taylor     :             4
  ----------------------------------- OT ---------------------------------------

  Step     Update method      Time    Convergence         Total energy    Change
  ------------------------------------------------------------------------------
     1 OT DIIS     0.15E+00    4.9     0.00000450       -71.2997581427 -7.13E+01
     2 OT DIIS     0.15E+00    1.8     0.00000329       -71.2997581489 -6.16E-09
     3 OT DIIS     0.15E+00    1.8     0.00000175       -71.2997581559 -6.99E-09
     4 OT DIIS     0.15E+00    1.8     0.00000104       -71.2997581583 -2.41E-09
     5 OT DIIS     0.15E+00    1.8     0.00000066       -71.2997581591 -8.65E-10

  *** SCF run converged in     5 steps ***


  Electronic density on regular grids:        -36.0000000000        0.0000000000
  Core density on regular grids:               36.0000000000       -0.0000000000
  Total charge density on r-space grids:       -0.0000000000
  Total charge density g-space grids:          -0.0000000000

  Overlap energy of the core charge distribution:               0.00000070225214
  Self energy of the core charge distribution:               -161.52508704299413
  Core Hamiltonian energy:                                     39.10405207761749
  Hartree energy:                                              66.20343267552693
  Exchange-correlation energy:                                -15.06595689461918
  Dispersion energy:                                           -0.01619967691490

  Total energy:                                               -71.29975815913164

  outer SCF iter =    1 RMS gradient =   0.66E-06 energy =        -71.2997581591
  outer SCF loop converged in   1 iterations or    5 steps


 ENERGY| Total FORCE_EVAL ( QS ) energy (a.u.):              -71.299758159131642


 -------------------------------------------------------------------------------
 -                                                                             -
 -                                DBCSR STATISTICS                             -
 -                                                                             -
 -------------------------------------------------------------------------------
 COUNTER                                    TOTAL       BLAS       SMM       ACC
 flops    18 x    18 x    18              8048160     100.0%      0.0%      0.0%
 flops    44 x    18 x    18             16850592     100.0%      0.0%      0.0%
 flops    44 x    18 x    22             26972352     100.0%      0.0%      0.0%
 flops    88 x    18 x    18             33701184     100.0%      0.0%      0.0%
 flops    18 x    18 x    22             40287456     100.0%      0.0%      0.0%
 flops    22 x    22 x    18             50128848     100.0%      0.0%      0.0%
 flops    88 x    18 x    22             53944704     100.0%      0.0%      0.0%
 flops    22 x    18 x    22            181906560     100.0%      0.0%      0.0%
 flops inhomo. stacks                           0       0.0%      0.0%      0.0%
 flops total                       411.839856E+06     100.0%      0.0%      0.0%
 flops max/rank                    269.187984E+06     100.0%      0.0%      0.0%
 matmuls inhomo. stacks                         0       0.0%      0.0%      0.0%
 matmuls total                              19563     100.0%      0.0%      0.0%
 number of processed stacks                 11096     100.0%      0.0%      0.0%
 average stack size                                     1.8       0.0       0.0
 marketing flops                   448.414784E+06
 -------------------------------------------------------------------------------
 # multiplications                           2317
 max memory usage/rank             604.499968E+06
 # max total images/rank                        5
 # max 3D layers                                1
 # MPI messages exchanged                  648760
 MPI messages size (bytes):
  total size                       423.303552E+06
  min size                           0.000000E+00
  max size                          15.488000E+03
  average size                     652.480957E+00
 MPI breakdown and total messages size (bytes):
             size <=      128              579536                        0
       128 < size <=     8192               56256                230655360
      8192 < size <=    32768               12968                192648192
     32768 < size <=   131072                   0                        0
    131072 < size <=  4194304                   0                        0
   4194304 < size <= 16777216                   0                        0
  16777216 < size                               0                        0
 -------------------------------------------------------------------------------

 *** WARNING in dbcsr/mm/dbcsr_mm.F:268 :: Using a non-square number of ***
 *** MPI ranks might lead to poor performance.                          ***
 *** Used ranks: 10                                                     ***
 *** Suggested: 9 16                                                    ***

 -------------------------------------------------------------------------------
 
 MEMORY| Estimated peak process memory [MiB]                                 577

 -------------------------------------------------------------------------------
 -                                                                             -
 -                         MESSAGE PASSING PERFORMANCE                         -
 -                                                                             -
 -------------------------------------------------------------------------------

 ROUTINE             CALLS      AVE VOLUME [Bytes]
 MP_Group              157
 MP_Bcast             2320                 151703.
 MP_Allreduce        18817                    105.
 MP_Sync                66
 MP_Alltoall         11308                5898210.
 MP_SendRecv           288                     60.
 MP_ISendRecv         6939                 432427.
 MP_Wait            141349
 MP_comm_split          62
 MP_ISend           144890                  39549.
 MP_IRecv           144238                  39493.
 MP_Recv                72                   2805.
 MP_Memory          296882
 -------------------------------------------------------------------------------


 -------------------------------------------------------------------------------
 -                                                                             -
 -                           R E F E R E N C E S                               -
 -                                                                             -
 -------------------------------------------------------------------------------
 
 CP2K version 6.1, the CP2K developers group (2018).
 CP2K is freely available from https://www.cp2k.org/ .

 Schuett, Ole; Messmer, Peter; Hutter, Juerg; VandeVondele, Joost. 
 Electronic Structure Calculations on Graphics Processing Units, John Wiley & Sons, Ltd, 173-190 (2016). 
 GPU-Accelerated Sparse Matrix-Matrix Multiplication for Linear Scaling Density Functional Theory.
 http://dx.doi.org/10.1002/9781118670712.ch8


 Borstnik, U; VandeVondele, J; Weber, V; Hutter, J. 
 PARALLEL COMPUTING, 40 (5-6), 47-58 (2014). 
 Sparse matrix multiplication: The distributed block-compressed sparse
 row library.
 http://dx.doi.org/10.1016/j.parco.2014.03.012


 Hutter, J; Iannuzzi, M; Schiffmann, F; VandeVondele, J. 
 WILEY INTERDISCIPLINARY REVIEWS-COMPUTATIONAL MOLECULAR SCIENCE, 4 (1), 15-25 (2014). 
 CP2K: atomistic simulations of condensed matter systems.
 http://dx.doi.org/10.1002/wcms.1159


 Grimme, S; Ehrlich, S; Goerigk, L. 
 JOURNAL OF COMPUTATIONAL CHEMISTRY, 32, 1456 (2011). 
 Effect of the damping function in dispersion corrected density functional theory.
 http://dx.doi.org/10.1002/jcc.21759


 Grimme, S; Antony, J; Ehrlich, S; Krieg, H. 
 JOURNAL OF CHEMICAL PHYSICS, 132 (15), 154104 (2010). 
 A consistent and accurate ab initio parametrization of density
 functional dispersion correction (DFT-D) for the 94 elements H-Pu.
 http://dx.doi.org/10.1063/1.3382344


 VandeVondele, J; Hutter, J. 
 JOURNAL OF CHEMICAL PHYSICS, 127 (11), 114105 (2007). 
 Gaussian basis sets for accurate calculations on molecular systems in
 gas and condensed phases.
 http://dx.doi.org/10.1063/1.2770708


 Krack, M. 
 THEORETICAL CHEMISTRY ACCOUNTS, 114 (1-3), 145-152 (2005). 
 Pseudopotentials for H to Kr optimized for gradient-corrected
 exchange-correlation functionals.
 http://dx.doi.org/10.1007/s00214-005-0655-y


 VandeVondele, J; Krack, M; Mohamed, F; Parrinello, M; Chassaing, T;
 Hutter, J. COMPUTER PHYSICS COMMUNICATIONS, 167 (2), 103-128 (2005). 
 QUICKSTEP: Fast and accurate density functional calculations using a
 mixed Gaussian and plane waves approach.
 http://dx.doi.org/10.1016/j.cpc.2004.12.014


 Frigo, M; Johnson, SG. 
 PROCEEDINGS OF THE IEEE, 93 (2), 216-231 (2005). 
 The design and implementation of FFTW3.
 http://dx.doi.org/10.1109/JPROC.2004.840301


 Kolafa, J. 
 JOURNAL OF COMPUTATIONAL CHEMISTRY, 25 (3), 335-342 (2004). 
 Time-reversible always stable predictor-corrector method for molecular dynamics of polarizable molecules.
 http://dx.doi.org/10.1002/jcc.10385


 VandeVondele, J; Hutter, J. 
 JOURNAL OF CHEMICAL PHYSICS, 118 (10), 4365-4369 (2003). 
 An efficient orbital transformation method for electronic structure
 calculations.
 http://dx.doi.org/10.1063/1.1543154


 Martyna, GJ; Tuckerman, ME. 
 JOURNAL OF CHEMICAL PHYSICS, 110 (6), 2810-2821 (1999). 
 A reciprocal space based method for treating long range interactions in
 ab initio and force-field-based calculations in clusters.
 http://dx.doi.org/10.1063/1.477923


 Hartwigsen, C; Goedecker, S; Hutter, J. 
 PHYSICAL REVIEW B, 58 (7), 3641-3662 (1998). 
 Relativistic separable dual-space Gaussian pseudopotentials from H to Rn.
 http://dx.doi.org/10.1103/PhysRevB.58.3641


 Lippert, G; Hutter, J; Parrinello, M. 
 MOLECULAR PHYSICS, 92 (3), 477-487 (1997). 
 A hybrid Gaussian and plane wave density functional scheme.
 http://dx.doi.org/10.1080/002689797170220


 Perdew, JP; Burke, K; Ernzerhof, M. 
 PHYSICAL REVIEW LETTERS, 77 (18), 3865-3868 (1996). 
 Generalized gradient approximation made simple.
 http://dx.doi.org/10.1103/PhysRevLett.77.3865


 Goedecker, S; Teter, M; Hutter, J. 
 PHYSICAL REVIEW B, 54 (3), 1703-1710 (1996). 
 Separable dual-space Gaussian pseudopotentials.
 http://dx.doi.org/10.1103/PhysRevB.54.1703


 -------------------------------------------------------------------------------
 -                                                                             -
 -                                T I M I N G                                  -
 -                                                                             -
 -------------------------------------------------------------------------------
 SUBROUTINE                       CALLS  ASD         SELF TIME        TOTAL TIME
                                MAXIMUM       AVERAGE  MAXIMUM  AVERAGE  MAXIMUM
 CP2K                                 1  1.0    2.830    2.851  651.415  651.470
 cp_geo_opt                           1  2.0    0.003    0.031  620.038  620.294
 geoopt_bfgs                          1  3.0    2.634    3.526  620.035  620.294
 cp_eval_at                           9  4.0    6.301    9.732  610.866  612.622
 qs_forces                            8  5.0    2.948    3.191  586.461  586.623
 qs_energies                          9  5.9    5.439    6.635  564.879  565.572
 scf_env_do_scf                       9  6.9    5.778    7.050  484.795  485.019
 scf_env_do_scf_inner_loop          120  8.0   11.714   14.122  370.387  371.318
 rebuild_ks_matrix                  128  9.8    0.090    0.100  318.079  318.414
 qs_ks_build_kohn_sham_matrix       128 10.8   10.988   13.281  317.989  318.348
 qs_ks_update_qs_env                129  9.0    0.027    0.038  295.096  296.379
 pw_transfer                       2447 13.5    0.249    0.377  242.490  254.866
 fft_wrap_pw1pw2                   2191 14.5    0.026    0.032  240.939  253.367
 fft3d_ps                          2191 16.5   91.127  100.917  176.309  192.756
 fft_wrap_pw1pw2_200               1419 15.6   15.731   18.700  180.588  191.931
 qs_vxc_create                      128 11.8    6.812    8.811  163.983  167.014
 xc_vxc_pw_create                   128 12.8    7.046    8.849  157.171  158.409
 init_scf_loop                        9  7.9    3.133    3.335  108.605  109.065
 xc_rho_set_and_dset_create         128 13.8    2.751    3.562   83.280   93.427
 qs_scf_new_mos                     120  9.0    0.367    0.523   79.771   80.702
 qs_scf_loop_do_ot                  120 10.0    2.559    4.424   79.405   80.357
 ot_scf_mini                        120 11.0    2.615    3.439   74.127   75.375
 mp_alltoall_z22v                  2191 18.5   44.261   69.640   44.261   69.640
 qs_rho_update_rho                  129  9.0    3.069    3.226   62.751   64.426
 sum_up_and_integrate               128 11.8    2.249    2.317   60.289   62.543
 calculate_rho_elec                 129 10.0    2.617    4.224   59.682   61.221
 integrate_v_rspace                 128 12.8   11.448   12.931   58.040   60.230
 yz_to_x                           1038 17.0   19.318   22.333   46.348   59.873
 qs_ot_get_p                        129 11.8    0.842    0.899   56.814   56.886
 pw_poisson_solve                   128 11.8    3.085    3.196   55.337   55.444
 density_rs2pw                      129 11.0    0.010    0.024   51.437   52.149
 pw_poisson_rebuild                 128 12.8    0.008    0.011   50.050   50.060
 MTin_create_screen_fn                1 14.0    0.285    0.372   50.042   50.052
 fft_wrap_pw1pw2_400                  1 17.0   12.180   14.236   46.511   48.001
 x_to_yz                           1153 18.0   18.137   19.349   35.368   46.743
 potential_pw2rs                    128 13.8    0.538    0.569   42.846   45.018
 rs_pw_transfer                    1045 13.3    0.019    0.036   40.907   42.826
 xc_functional_eval                 128 14.8    0.144    0.450   28.142   36.860
 pbe_lda_eval                       128 15.8   27.998   36.641   27.998   36.641
 qs_energies_init_hamiltonians        9  6.9    0.452    0.922   36.595   36.604
 arnoldi_extremal                   129 12.8   11.032   13.851   29.482   30.975
 qs_ks_update_qs_env_forces           8  6.0    0.000    0.000   28.201   28.201
 qs_ot_p2m_diag                      54 13.0    1.814    1.979   26.238   27.221
 qs_init_subsys                       1  2.0    1.405    1.604   26.874   26.908
 qs_env_update_s_mstruct              9  7.9    2.467    3.561   25.161   25.821
 cp_dbcsr_syevd                      54 14.0    6.681   10.209   24.249   25.096
 pw_gather_p                       1038 16.0   22.830   24.936   22.830   24.936
 qs_env_setup                         1  3.0    0.173    0.229   23.659   23.670
 qs_env_rebuild_pw_env               18  6.3    0.003    0.003   23.088   23.129
 pw_env_rebuild                       1  5.0    2.277    2.340   23.023   23.024
 arnoldi_normal_ev                  129 13.8    0.371    0.384   18.450   21.169
 init_scf_run                         9  6.9    0.045    0.449   21.133   21.134
 scf_env_initial_rho_setup            9  7.9    0.632    0.632   21.087   21.134
 pw_grid_setup                        5  6.0    0.000    0.000   20.218   20.218
 pw_grid_setup_internal               5  7.0    0.400    0.618   20.218   20.218
 mp_waitany                        3836 15.2   14.861   20.135   14.861   20.135
 calculate_rho_core                   9  8.9    0.539    1.208   18.117   19.581
 rs_pw_transfer_PW2RS_200           136 15.5    8.921   11.264   17.834   19.378
 rs_pw_transfer_RS2PW_200           138 12.9    8.789    9.776   17.485   19.085
 ot_mini                            120 12.0    0.206    0.206   17.936   18.887
 mp_sum_d                          3769 13.0   11.170   18.467   11.170   18.467
 write_mo_set_to_restart            120  9.0    1.843   11.324   15.802   16.305
 write_mo_set_low                    11  9.9    7.577    9.834   13.853   14.863
 pw_scatter_p                      1153 17.0   13.535   14.434   13.535   14.434
 compute_evals                      129 14.8   11.948   13.432   11.948   13.432
 dbcsr_multiply_generic            2317 13.9    1.023    1.677   11.885   13.173
 -------------------------------------------------------------------------------

 The number of warnings for this run is : 2
 
 -------------------------------------------------------------------------------
  **** **** ******  **  PROGRAM ENDED AT                 2021-09-29 11:59:02.983
 ***** ** ***  *** **   PROGRAM RAN ON                                    node18
 **    ****   ******    PROGRAM RAN BY                                    kbatra
 ***** **    ** ** **   PROGRAM PROCESS ID                                 55521
  **** **  *******  **  PROGRAM STOPPED IN /home/kbatra/Projects_2021/Perc_MOFs/
                                           CP2K_PCE
